 Entering Gaussian System, Link 0=g16
 Input=molecule.gjf
 Output=molecule.log
 Initial command:
 /share/apps/softwares/gaussian/16/g16/l1.exe "/share/home/kae/gaussian/corrtectedOI/torsion/theta50/Gau-13713.inp" -scrdir="/share/home/kae/gaussian/corrtectedOI/torsion/theta50/"
 Entering Link 1 = /share/apps/softwares/gaussian/16/g16/l1.exe PID=     13714.
  
 Copyright (c) 1988-2019, Gaussian, Inc.  All Rights Reserved.
  
 This is part of the Gaussian(R) 16 program.  It is based on
 the Gaussian(R) 09 system (copyright 2009, Gaussian, Inc.),
 the Gaussian(R) 03 system (copyright 2003, Gaussian, Inc.),
 the Gaussian(R) 98 system (copyright 1998, Gaussian, Inc.),
 the Gaussian(R) 94 system (copyright 1995, Gaussian, Inc.),
 the Gaussian 92(TM) system (copyright 1992, Gaussian, Inc.),
 the Gaussian 90(TM) system (copyright 1990, Gaussian, Inc.),
 the Gaussian 88(TM) system (copyright 1988, Gaussian, Inc.),
 the Gaussian 86(TM) system (copyright 1986, Carnegie Mellon
 University), and the Gaussian 82(TM) system (copyright 1983,
 Carnegie Mellon University). Gaussian is a federally registered
 trademark of Gaussian, Inc.
  
 This software contains proprietary and confidential information,
 including trade secrets, belonging to Gaussian, Inc.
  
 This software is provided under written license and may be
 used, copied, transmitted, or stored only in accord with that
 written license.
  
 The following legend is applicable only to US Government
 contracts under FAR:
  
                    RESTRICTED RIGHTS LEGEND
  
 Use, reproduction and disclosure by the US Government is
 subject to restrictions as set forth in subparagraphs (a)
 and (c) of the Commercial Computer Software - Restricted
 Rights clause in FAR 52.227-19.
  
 Gaussian, Inc.
 340 Quinnipiac St., Bldg. 40, Wallingford CT 06492
  
  
 ---------------------------------------------------------------
 Warning -- This program may not be used in any manner that
 competes with the business of Gaussian, Inc. or will provide
 assistance to any competitor of Gaussian, Inc.  The licensee
 of this program is prohibited from giving any competitor of
 Gaussian, Inc. access to this program.  By using this program,
 the user acknowledges that Gaussian, Inc. is engaged in the
 business of creating and licensing software in the field of
 computational chemistry and represents and warrants to the
 licensee that it is not a competitor of Gaussian, Inc. and that
 it will not use this program in any manner prohibited above.
 ---------------------------------------------------------------
  

 Cite this work as:
 Gaussian 16, Revision C.01,
 M. J. Frisch, G. W. Trucks, H. B. Schlegel, G. E. Scuseria, 
 M. A. Robb, J. R. Cheeseman, G. Scalmani, V. Barone, 
 G. A. Petersson, H. Nakatsuji, X. Li, M. Caricato, A. V. Marenich, 
 J. Bloino, B. G. Janesko, R. Gomperts, B. Mennucci, H. P. Hratchian, 
 J. V. Ortiz, A. F. Izmaylov, J. L. Sonnenberg, D. Williams-Young, 
 F. Ding, F. Lipparini, F. Egidi, J. Goings, B. Peng, A. Petrone, 
 T. Henderson, D. Ranasinghe, V. G. Zakrzewski, J. Gao, N. Rega, 
 G. Zheng, W. Liang, M. Hada, M. Ehara, K. Toyota, R. Fukuda, 
 J. Hasegawa, M. Ishida, T. Nakajima, Y. Honda, O. Kitao, H. Nakai, 
 T. Vreven, K. Throssell, J. A. Montgomery, Jr., J. E. Peralta, 
 F. Ogliaro, M. J. Bearpark, J. J. Heyd, E. N. Brothers, K. N. Kudin, 
 V. N. Staroverov, T. A. Keith, R. Kobayashi, J. Normand, 
 K. Raghavachari, A. P. Rendell, J. C. Burant, S. S. Iyengar, 
 J. Tomasi, M. Cossi, J. M. Millam, M. Klene, C. Adamo, R. Cammi, 
 J. W. Ochterski, R. L. Martin, K. Morokuma, O. Farkas, 
 J. B. Foresman, and D. J. Fox, Gaussian, Inc., Wallingford CT, 2019.
 
 ******************************************
 Gaussian 16:  ES64L-G16RevC.01  3-Jul-2019
                15-Aug-2025 
 ******************************************
 %mem=56GB
 %nprocshared=24
 Will use up to   24 processors via shared memory.
 %chk=molecule.chk
 ---------------------------------------------------
 #p opt=modredundant freq Ub3lyp/6-31g(d,p) em=gd3bj
 ---------------------------------------------------
 1/18=120,19=15,26=3,38=1/1,3;
 2/9=110,12=2,17=6,18=5,40=1/2;
 3/5=1,6=6,7=101,11=2,25=1,30=1,71=1,74=-5,116=2,124=41/1,2,3;
 4//1;
 5/5=2,38=5/2;
 6/7=2,8=2,9=2,10=2,28=1/1;
 7//1,2,3,16;
 1/18=20,19=15,26=3/3(2);
 2/9=110/2;
 99//99;
 2/9=110/2;
 3/5=1,6=6,7=101,11=2,25=1,30=1,71=1,74=-5,116=2,124=41/1,2,3;
 4/5=5,16=3,69=1/1;
 5/5=2,38=5/2;
 7//1,2,3,16;
 1/18=20,19=15,26=3/3(-5);
 2/9=110/2;
 6/7=2,8=2,9=2,10=2,19=2,28=1/1;
 99/9=1/99;
 Leave Link    1 at Fri Aug 15 20:57:01 2025, MaxMem=  7516192768 cpu:               1.5 elap:               0.1
 (Enter /share/apps/softwares/gaussian/16/g16/l101.exe)
 --------
 molecule
 --------
 Symbolic Z-matrix:
 Charge =  0 Multiplicity = 2
 C                    -0.58017  -0.00001  -0.00001 
 C                    -1.306     0.78239  -0.91381 
 C                    -2.69683   0.78145  -0.91406 
 C                    -3.4172    0.       -0.00002 
 C                    -2.69685  -0.78145   0.91402 
 C                    -1.30602  -0.7824    0.91379 
 C                     0.89624  -0.00002  0. 
 C                     1.62663   0.13931  -1.19453 
 C                     3.01199   0.14271  -1.19732 
 C                     3.75439  -0.00002   0.00001 
 C                     3.01198  -0.14276   1.19734 
 C                     1.62662  -0.13936   1.19454 
 H                    -0.7728    1.41643  -1.61479 
 H                    -3.23923   1.39752  -1.62444 
 H                    -3.23926  -1.39751   1.6244 
 H                    -0.77284  -1.41645   1.61477 
 H                     1.095     0.20615  -2.13847 
 H                     1.09498  -0.2062    2.13847 
 C                     5.20759  0.         0.00002 
 C                     5.94223   1.05685  -0.6916 
 C                     6.98215   0.75144  -1.59914 
 C                     5.64375   2.42171  -0.4764 
 C                     7.67959   1.75687  -2.25845 
 C                     6.34697   3.42409  -1.13444 
 H                     4.86666   2.68436   0.2327 
 C                     7.36815   3.09982  -2.03109 
 H                     8.46488   1.49243  -2.96036 
 C                     5.94225  -1.05682   0.69162 
 C                     5.6438   -2.4217    0.4764 
 C                     6.98217  -0.75142   1.59918 
 C                     6.34705  -3.42407   1.13441 
 C                     7.67964  -1.75684   2.25845 
 C                     7.36824  -3.0998    2.03106 
 H                     6.10472  -4.46463   0.93989 
 H                     8.46493  -1.4924    2.96037 
 H                     7.91517   3.88381  -2.54534 
 H                     7.22036  -0.28814  -1.79451 
 H                     6.10462   4.46465  -0.93993 
 H                     7.91528  -3.88379   2.54528 
 H                     4.8667   -2.68435  -0.23268 
 H                     7.22035   0.28816   1.79458 
 H                     3.54308  -0.22105   2.13913 
 H                     3.5431    0.22098  -2.13911 
 C                    -5.60975  -1.14747  -0.43102 
 C                    -5.60975   1.14749   0.43094 
 C                    -4.94619  -2.32304  -0.90615 
 C                    -7.05391  -1.14405  -0.42165 
 C                    -7.05391   1.14408   0.42156 
 C                    -4.94619   2.32305   0.90608 
 C                    -5.65497  -3.42104  -1.31579 
 H                    -3.8635   -2.33052  -0.94289 
 C                    -7.75379  -2.31217  -0.85408 
 C                    -7.75378   2.31221   0.85398 
 H                    -3.8635    2.33053   0.94284 
 C                    -5.65496   3.42106   1.31572 
 C                    -7.07824  -3.42106  -1.28488 
 H                    -5.12889  -4.30072  -1.67378 
 H                    -8.83998  -2.29654  -0.83516 
 C                    -7.07824   3.42109   1.28479 
 H                    -8.83997   2.29658   0.83505 
 H                    -5.12888   4.30074   1.67371 
 H                    -7.62244  -4.30182  -1.61149 
 H                    -7.62243   4.30185   1.61139 
 C                    -4.90647   0.00001  -0.00003 
 C                    -7.73559   0.00002  -0.00005 
 H                    -8.8227    0.00002  -0.00006 
 
 The following ModRedundant input section has been read:
 D      10      19      20      21 F                                           
 D      10      19      28      30 F                                           
 D      11      10      19      20 F                                           
 
 ITRead=  0  0  0  0  0  0  0  0  0  0  0  0  0  0  0  0  0  0  0  0
 ITRead=  0  0  0  0  0  0  0  0  0  0  0  0  0  0  0  0  0  0  0  0
 ITRead=  0  0  0  0  0  0  0  0  0  0  0  0  0  0  0  0  0  0  0  0
 ITRead=  0  0  0  0  0  0
 MicOpt= -1 -1 -1 -1 -1 -1 -1 -1 -1 -1 -1 -1 -1 -1 -1 -1 -1 -1 -1 -1
 MicOpt= -1 -1 -1 -1 -1 -1 -1 -1 -1 -1 -1 -1 -1 -1 -1 -1 -1 -1 -1 -1
 MicOpt= -1 -1 -1 -1 -1 -1 -1 -1 -1 -1 -1 -1 -1 -1 -1 -1 -1 -1 -1 -1
 MicOpt= -1 -1 -1 -1 -1 -1
 NAtoms=     66 NQM=       66 NQMF=       0 NMMI=      0 NMMIF=      0
                NMic=       0 NMicF=      0.
                    Isotopes and Nuclear Properties:
 (Nuclear quadrupole moments (NQMom) in fm**2, nuclear magnetic moments (NMagM)
  in nuclear magnetons)

  Atom         1           2           3           4           5           6           7           8           9          10
 IAtWgt=          12          12          12          12          12          12          12          12          12          12
 AtmWgt=  12.0000000  12.0000000  12.0000000  12.0000000  12.0000000  12.0000000  12.0000000  12.0000000  12.0000000  12.0000000
 NucSpn=           0           0           0           0           0           0           0           0           0           0
 AtZEff=  -0.0000000  -0.0000000  -0.0000000  -0.0000000  -0.0000000  -0.0000000  -0.0000000  -0.0000000  -0.0000000  -0.0000000
 NQMom=    0.0000000   0.0000000   0.0000000   0.0000000   0.0000000   0.0000000   0.0000000   0.0000000   0.0000000   0.0000000
 NMagM=    0.0000000   0.0000000   0.0000000   0.0000000   0.0000000   0.0000000   0.0000000   0.0000000   0.0000000   0.0000000
 AtZNuc=   6.0000000   6.0000000   6.0000000   6.0000000   6.0000000   6.0000000   6.0000000   6.0000000   6.0000000   6.0000000

  Atom        11          12          13          14          15          16          17          18          19          20
 IAtWgt=          12          12           1           1           1           1           1           1          12          12
 AtmWgt=  12.0000000  12.0000000   1.0078250   1.0078250   1.0078250   1.0078250   1.0078250   1.0078250  12.0000000  12.0000000
 NucSpn=           0           0           1           1           1           1           1           1           0           0
 AtZEff=  -0.0000000  -0.0000000  -0.0000000  -0.0000000  -0.0000000  -0.0000000  -0.0000000  -0.0000000  -0.0000000  -0.0000000
 NQMom=    0.0000000   0.0000000   0.0000000   0.0000000   0.0000000   0.0000000   0.0000000   0.0000000   0.0000000   0.0000000
 NMagM=    0.0000000   0.0000000   2.7928460   2.7928460   2.7928460   2.7928460   2.7928460   2.7928460   0.0000000   0.0000000
 AtZNuc=   6.0000000   6.0000000   1.0000000   1.0000000   1.0000000   1.0000000   1.0000000   1.0000000   6.0000000   6.0000000

  Atom        21          22          23          24          25          26          27          28          29          30
 IAtWgt=          12          12          12          12           1          12           1          12          12          12
 AtmWgt=  12.0000000  12.0000000  12.0000000  12.0000000   1.0078250  12.0000000   1.0078250  12.0000000  12.0000000  12.0000000
 NucSpn=           0           0           0           0           1           0           1           0           0           0
 AtZEff=  -0.0000000  -0.0000000  -0.0000000  -0.0000000  -0.0000000  -0.0000000  -0.0000000  -0.0000000  -0.0000000  -0.0000000
 NQMom=    0.0000000   0.0000000   0.0000000   0.0000000   0.0000000   0.0000000   0.0000000   0.0000000   0.0000000   0.0000000
 NMagM=    0.0000000   0.0000000   0.0000000   0.0000000   2.7928460   0.0000000   2.7928460   0.0000000   0.0000000   0.0000000
 AtZNuc=   6.0000000   6.0000000   6.0000000   6.0000000   1.0000000   6.0000000   1.0000000   6.0000000   6.0000000   6.0000000

  Atom        31          32          33          34          35          36          37          38          39          40
 IAtWgt=          12          12          12           1           1           1           1           1           1           1
 AtmWgt=  12.0000000  12.0000000  12.0000000   1.0078250   1.0078250   1.0078250   1.0078250   1.0078250   1.0078250   1.0078250
 NucSpn=           0           0           0           1           1           1           1           1           1           1
 AtZEff=  -0.0000000  -0.0000000  -0.0000000  -0.0000000  -0.0000000  -0.0000000  -0.0000000  -0.0000000  -0.0000000  -0.0000000
 NQMom=    0.0000000   0.0000000   0.0000000   0.0000000   0.0000000   0.0000000   0.0000000   0.0000000   0.0000000   0.0000000
 NMagM=    0.0000000   0.0000000   0.0000000   2.7928460   2.7928460   2.7928460   2.7928460   2.7928460   2.7928460   2.7928460
 AtZNuc=   6.0000000   6.0000000   6.0000000   1.0000000   1.0000000   1.0000000   1.0000000   1.0000000   1.0000000   1.0000000

  Atom        41          42          43          44          45          46          47          48          49          50
 IAtWgt=           1           1           1          12          12          12          12          12          12          12
 AtmWgt=   1.0078250   1.0078250   1.0078250  12.0000000  12.0000000  12.0000000  12.0000000  12.0000000  12.0000000  12.0000000
 NucSpn=           1           1           1           0           0           0           0           0           0           0
 AtZEff=  -0.0000000  -0.0000000  -0.0000000  -0.0000000  -0.0000000  -0.0000000  -0.0000000  -0.0000000  -0.0000000  -0.0000000
 NQMom=    0.0000000   0.0000000   0.0000000   0.0000000   0.0000000   0.0000000   0.0000000   0.0000000   0.0000000   0.0000000
 NMagM=    2.7928460   2.7928460   2.7928460   0.0000000   0.0000000   0.0000000   0.0000000   0.0000000   0.0000000   0.0000000
 AtZNuc=   1.0000000   1.0000000   1.0000000   6.0000000   6.0000000   6.0000000   6.0000000   6.0000000   6.0000000   6.0000000

  Atom        51          52          53          54          55          56          57          58          59          60
 IAtWgt=           1          12          12           1          12          12           1           1          12           1
 AtmWgt=   1.0078250  12.0000000  12.0000000   1.0078250  12.0000000  12.0000000   1.0078250   1.0078250  12.0000000   1.0078250
 NucSpn=           1           0           0           1           0           0           1           1           0           1
 AtZEff=  -0.0000000  -0.0000000  -0.0000000  -0.0000000  -0.0000000  -0.0000000  -0.0000000  -0.0000000  -0.0000000  -0.0000000
 NQMom=    0.0000000   0.0000000   0.0000000   0.0000000   0.0000000   0.0000000   0.0000000   0.0000000   0.0000000   0.0000000
 NMagM=    2.7928460   0.0000000   0.0000000   2.7928460   0.0000000   0.0000000   2.7928460   2.7928460   0.0000000   2.7928460
 AtZNuc=   1.0000000   6.0000000   6.0000000   1.0000000   6.0000000   6.0000000   1.0000000   1.0000000   6.0000000   1.0000000

  Atom        61          62          63          64          65          66
 IAtWgt=           1           1           1          12          12           1
 AtmWgt=   1.0078250   1.0078250   1.0078250  12.0000000  12.0000000   1.0078250
 NucSpn=           1           1           1           0           0           1
 AtZEff=  -0.0000000  -0.0000000  -0.0000000  -0.0000000  -0.0000000  -0.0000000
 NQMom=    0.0000000   0.0000000   0.0000000   0.0000000   0.0000000   0.0000000
 NMagM=    2.7928460   2.7928460   2.7928460   0.0000000   0.0000000   2.7928460
 AtZNuc=   1.0000000   1.0000000   1.0000000   6.0000000   6.0000000   1.0000000
 Leave Link  101 at Fri Aug 15 20:57:01 2025, MaxMem=  7516192768 cpu:              10.1 elap:               0.5
 (Enter /share/apps/softwares/gaussian/16/g16/l103.exe)

 GradGradGradGradGradGradGradGradGradGradGradGradGradGradGradGradGradGrad
 Berny optimization.
 Initialization pass.
                           ----------------------------
                           !    Initial Parameters    !
                           ! (Angstroms and Degrees)  !
 --------------------------                            --------------------------
 ! Name  Definition              Value          Derivative Info.                !
 --------------------------------------------------------------------------------
 ! R1    R(1,2)                  1.405          estimate D2E/DX2                !
 ! R2    R(1,6)                  1.405          estimate D2E/DX2                !
 ! R3    R(1,7)                  1.4764         estimate D2E/DX2                !
 ! R4    R(2,3)                  1.3908         estimate D2E/DX2                !
 ! R5    R(2,13)                 1.0852         estimate D2E/DX2                !
 ! R6    R(3,4)                  1.4018         estimate D2E/DX2                !
 ! R7    R(3,14)                 1.0855         estimate D2E/DX2                !
 ! R8    R(4,5)                  1.4018         estimate D2E/DX2                !
 ! R9    R(4,64)                 1.4893         estimate D2E/DX2                !
 ! R10   R(5,6)                  1.3908         estimate D2E/DX2                !
 ! R11   R(5,15)                 1.0855         estimate D2E/DX2                !
 ! R12   R(6,16)                 1.0852         estimate D2E/DX2                !
 ! R13   R(7,8)                  1.407          estimate D2E/DX2                !
 ! R14   R(7,12)                 1.407          estimate D2E/DX2                !
 ! R15   R(8,9)                  1.3854         estimate D2E/DX2                !
 ! R16   R(8,17)                 1.0854         estimate D2E/DX2                !
 ! R17   R(9,10)                 1.416          estimate D2E/DX2                !
 ! R18   R(9,43)                 1.0841         estimate D2E/DX2                !
 ! R19   R(10,11)                1.416          estimate D2E/DX2                !
 ! R20   R(10,19)                1.4532         estimate D2E/DX2                !
 ! R21   R(11,12)                1.3854         estimate D2E/DX2                !
 ! R22   R(11,42)                1.0841         estimate D2E/DX2                !
 ! R23   R(12,18)                1.0854         estimate D2E/DX2                !
 ! R24   R(19,20)                1.4612         estimate D2E/DX2                !
 ! R25   R(19,28)                1.4611         estimate D2E/DX2                !
 ! R26   R(20,21)                1.4136         estimate D2E/DX2                !
 ! R27   R(20,22)                1.4136         estimate D2E/DX2                !
 ! R28   R(21,23)                1.39           estimate D2E/DX2                !
 ! R29   R(21,37)                1.0843         estimate D2E/DX2                !
 ! R30   R(22,24)                1.3901         estimate D2E/DX2                !
 ! R31   R(22,25)                1.0843         estimate D2E/DX2                !
 ! R32   R(23,26)                1.3972         estimate D2E/DX2                !
 ! R33   R(23,27)                1.086          estimate D2E/DX2                !
 ! R34   R(24,26)                1.3971         estimate D2E/DX2                !
 ! R35   R(24,38)                1.086          estimate D2E/DX2                !
 ! R36   R(26,36)                1.0855         estimate D2E/DX2                !
 ! R37   R(28,29)                1.4136         estimate D2E/DX2                !
 ! R38   R(28,30)                1.4136         estimate D2E/DX2                !
 ! R39   R(29,31)                1.3901         estimate D2E/DX2                !
 ! R40   R(29,40)                1.0843         estimate D2E/DX2                !
 ! R41   R(30,32)                1.39           estimate D2E/DX2                !
 ! R42   R(30,41)                1.0843         estimate D2E/DX2                !
 ! R43   R(31,33)                1.3971         estimate D2E/DX2                !
 ! R44   R(31,34)                1.086          estimate D2E/DX2                !
 ! R45   R(32,33)                1.3972         estimate D2E/DX2                !
 ! R46   R(32,35)                1.086          estimate D2E/DX2                !
 ! R47   R(33,39)                1.0855         estimate D2E/DX2                !
 ! R48   R(44,46)                1.4311         estimate D2E/DX2                !
 ! R49   R(44,47)                1.4442         estimate D2E/DX2                !
 ! R50   R(44,64)                1.4132         estimate D2E/DX2                !
 ! R51   R(45,48)                1.4442         estimate D2E/DX2                !
 ! R52   R(45,49)                1.4311         estimate D2E/DX2                !
 ! R53   R(45,64)                1.4132         estimate D2E/DX2                !
 ! R54   R(46,50)                1.3696         estimate D2E/DX2                !
 ! R55   R(46,51)                1.0833         estimate D2E/DX2                !
 ! R56   R(47,52)                1.4288         estimate D2E/DX2                !
 ! R57   R(47,65)                1.3969         estimate D2E/DX2                !
 ! R58   R(48,53)                1.4288         estimate D2E/DX2                !
 ! R59   R(48,65)                1.3969         estimate D2E/DX2                !
 ! R60   R(49,54)                1.0833         estimate D2E/DX2                !
 ! R61   R(49,55)                1.3696         estimate D2E/DX2                !
 ! R62   R(50,56)                1.4236         estimate D2E/DX2                !
 ! R63   R(50,57)                1.0857         estimate D2E/DX2                !
 ! R64   R(52,56)                1.3681         estimate D2E/DX2                !
 ! R65   R(52,58)                1.0865         estimate D2E/DX2                !
 ! R66   R(53,59)                1.3681         estimate D2E/DX2                !
 ! R67   R(53,60)                1.0865         estimate D2E/DX2                !
 ! R68   R(55,59)                1.4236         estimate D2E/DX2                !
 ! R69   R(55,61)                1.0857         estimate D2E/DX2                !
 ! R70   R(56,62)                1.0856         estimate D2E/DX2                !
 ! R71   R(59,63)                1.0856         estimate D2E/DX2                !
 ! R72   R(65,66)                1.0871         estimate D2E/DX2                !
 ! A1    A(2,1,6)              117.7898         estimate D2E/DX2                !
 ! A2    A(2,1,7)              121.1051         estimate D2E/DX2                !
 ! A3    A(6,1,7)              121.1051         estimate D2E/DX2                !
 ! A4    A(1,2,3)              121.0871         estimate D2E/DX2                !
 ! A5    A(1,2,13)             119.449          estimate D2E/DX2                !
 ! A6    A(3,2,13)             119.4467         estimate D2E/DX2                !
 ! A7    A(2,3,4)              120.9407         estimate D2E/DX2                !
 ! A8    A(2,3,14)             119.9598         estimate D2E/DX2                !
 ! A9    A(4,3,14)             119.098          estimate D2E/DX2                !
 ! A10   A(3,4,5)              118.1546         estimate D2E/DX2                !
 ! A11   A(3,4,64)             120.9228         estimate D2E/DX2                !
 ! A12   A(5,4,64)             120.9227         estimate D2E/DX2                !
 ! A13   A(4,5,6)              120.9406         estimate D2E/DX2                !
 ! A14   A(4,5,15)             119.0981         estimate D2E/DX2                !
 ! A15   A(6,5,15)             119.9598         estimate D2E/DX2                !
 ! A16   A(1,6,5)              121.0871         estimate D2E/DX2                !
 ! A17   A(1,6,16)             119.449          estimate D2E/DX2                !
 ! A18   A(5,6,16)             119.4466         estimate D2E/DX2                !
 ! A19   A(1,7,8)              121.271          estimate D2E/DX2                !
 ! A20   A(1,7,12)             121.2711         estimate D2E/DX2                !
 ! A21   A(8,7,12)             117.4579         estimate D2E/DX2                !
 ! A22   A(7,8,9)              121.4019         estimate D2E/DX2                !
 ! A23   A(7,8,17)             119.3511         estimate D2E/DX2                !
 ! A24   A(9,8,17)             119.2021         estimate D2E/DX2                !
 ! A25   A(8,9,10)             121.4892         estimate D2E/DX2                !
 ! A26   A(8,9,43)             119.4623         estimate D2E/DX2                !
 ! A27   A(10,9,43)            119.0127         estimate D2E/DX2                !
 ! A28   A(9,10,11)            116.7589         estimate D2E/DX2                !
 ! A29   A(9,10,19)            121.6205         estimate D2E/DX2                !
 ! A30   A(11,10,19)           121.6205         estimate D2E/DX2                !
 ! A31   A(10,11,12)           121.4893         estimate D2E/DX2                !
 ! A32   A(10,11,42)           119.0125         estimate D2E/DX2                !
 ! A33   A(12,11,42)           119.4625         estimate D2E/DX2                !
 ! A34   A(7,12,11)            121.4018         estimate D2E/DX2                !
 ! A35   A(7,12,18)            119.3512         estimate D2E/DX2                !
 ! A36   A(11,12,18)           119.2022         estimate D2E/DX2                !
 ! A37   A(10,19,20)           120.1844         estimate D2E/DX2                !
 ! A38   A(10,19,28)           120.1856         estimate D2E/DX2                !
 ! A39   A(20,19,28)           119.6299         estimate D2E/DX2                !
 ! A40   A(19,20,21)           121.1637         estimate D2E/DX2                !
 ! A41   A(19,20,22)           121.3419         estimate D2E/DX2                !
 ! A42   A(21,20,22)           117.4942         estimate D2E/DX2                !
 ! A43   A(20,21,23)           121.1558         estimate D2E/DX2                !
 ! A44   A(20,21,37)           118.9753         estimate D2E/DX2                !
 ! A45   A(23,21,37)           119.8568         estimate D2E/DX2                !
 ! A46   A(20,22,24)           121.155          estimate D2E/DX2                !
 ! A47   A(20,22,25)           118.9973         estimate D2E/DX2                !
 ! A48   A(24,22,25)           119.8329         estimate D2E/DX2                !
 ! A49   A(21,23,26)           120.4133         estimate D2E/DX2                !
 ! A50   A(21,23,27)           119.5574         estimate D2E/DX2                !
 ! A51   A(26,23,27)           120.0272         estimate D2E/DX2                !
 ! A52   A(22,24,26)           120.412          estimate D2E/DX2                !
 ! A53   A(22,24,38)           119.5552         estimate D2E/DX2                !
 ! A54   A(26,24,38)           120.03           estimate D2E/DX2                !
 ! A55   A(23,26,24)           119.369          estimate D2E/DX2                !
 ! A56   A(23,26,36)           120.3167         estimate D2E/DX2                !
 ! A57   A(24,26,36)           120.3143         estimate D2E/DX2                !
 ! A58   A(19,28,29)           121.3412         estimate D2E/DX2                !
 ! A59   A(19,28,30)           121.1647         estimate D2E/DX2                !
 ! A60   A(29,28,30)           117.4939         estimate D2E/DX2                !
 ! A61   A(28,29,31)           121.1551         estimate D2E/DX2                !
 ! A62   A(28,29,40)           118.9969         estimate D2E/DX2                !
 ! A63   A(31,29,40)           119.8332         estimate D2E/DX2                !
 ! A64   A(28,30,32)           121.1558         estimate D2E/DX2                !
 ! A65   A(28,30,41)           118.9754         estimate D2E/DX2                !
 ! A66   A(32,30,41)           119.8566         estimate D2E/DX2                !
 ! A67   A(29,31,33)           120.4121         estimate D2E/DX2                !
 ! A68   A(29,31,34)           119.5551         estimate D2E/DX2                !
 ! A69   A(33,31,34)           120.0299         estimate D2E/DX2                !
 ! A70   A(30,32,33)           120.4135         estimate D2E/DX2                !
 ! A71   A(30,32,35)           119.5572         estimate D2E/DX2                !
 ! A72   A(33,32,35)           120.0271         estimate D2E/DX2                !
 ! A73   A(31,33,32)           119.3689         estimate D2E/DX2                !
 ! A74   A(31,33,39)           120.3144         estimate D2E/DX2                !
 ! A75   A(32,33,39)           120.3167         estimate D2E/DX2                !
 ! A76   A(46,44,47)           117.8892         estimate D2E/DX2                !
 ! A77   A(46,44,64)           122.5141         estimate D2E/DX2                !
 ! A78   A(47,44,64)           119.5871         estimate D2E/DX2                !
 ! A79   A(48,45,49)           117.8892         estimate D2E/DX2                !
 ! A80   A(48,45,64)           119.5872         estimate D2E/DX2                !
 ! A81   A(49,45,64)           122.514          estimate D2E/DX2                !
 ! A82   A(44,46,50)           121.1915         estimate D2E/DX2                !
 ! A83   A(44,46,51)           118.7073         estimate D2E/DX2                !
 ! A84   A(50,46,51)           120.1004         estimate D2E/DX2                !
 ! A85   A(44,47,52)           119.0741         estimate D2E/DX2                !
 ! A86   A(44,47,65)           119.4642         estimate D2E/DX2                !
 ! A87   A(52,47,65)           121.4603         estimate D2E/DX2                !
 ! A88   A(45,48,53)           119.0741         estimate D2E/DX2                !
 ! A89   A(45,48,65)           119.4642         estimate D2E/DX2                !
 ! A90   A(53,48,65)           121.4603         estimate D2E/DX2                !
 ! A91   A(45,49,54)           118.7072         estimate D2E/DX2                !
 ! A92   A(45,49,55)           121.1915         estimate D2E/DX2                !
 ! A93   A(54,49,55)           120.1004         estimate D2E/DX2                !
 ! A94   A(46,50,56)           120.7242         estimate D2E/DX2                !
 ! A95   A(46,50,57)           119.8304         estimate D2E/DX2                !
 ! A96   A(56,50,57)           119.4445         estimate D2E/DX2                !
 ! A97   A(47,52,56)           121.0721         estimate D2E/DX2                !
 ! A98   A(47,52,58)           118.2094         estimate D2E/DX2                !
 ! A99   A(56,52,58)           120.7182         estimate D2E/DX2                !
 ! A100  A(48,53,59)           121.0721         estimate D2E/DX2                !
 ! A101  A(48,53,60)           118.2093         estimate D2E/DX2                !
 ! A102  A(59,53,60)           120.7183         estimate D2E/DX2                !
 ! A103  A(49,55,59)           120.7242         estimate D2E/DX2                !
 ! A104  A(49,55,61)           119.8304         estimate D2E/DX2                !
 ! A105  A(59,55,61)           119.4445         estimate D2E/DX2                !
 ! A106  A(50,56,52)           120.0335         estimate D2E/DX2                !
 ! A107  A(50,56,62)           119.6462         estimate D2E/DX2                !
 ! A108  A(52,56,62)           120.3187         estimate D2E/DX2                !
 ! A109  A(53,59,55)           120.0335         estimate D2E/DX2                !
 ! A110  A(53,59,63)           120.3187         estimate D2E/DX2                !
 ! A111  A(55,59,63)           119.6462         estimate D2E/DX2                !
 ! A112  A(4,64,44)            119.8452         estimate D2E/DX2                !
 ! A113  A(4,64,45)            119.8453         estimate D2E/DX2                !
 ! A114  A(44,64,45)           120.3094         estimate D2E/DX2                !
 ! A115  A(47,65,48)           121.5823         estimate D2E/DX2                !
 ! A116  A(47,65,66)           119.2088         estimate D2E/DX2                !
 ! A117  A(48,65,66)           119.2089         estimate D2E/DX2                !
 ! D1    D(6,1,2,3)             -0.0421         estimate D2E/DX2                !
 ! D2    D(6,1,2,13)           178.4402         estimate D2E/DX2                !
 ! D3    D(7,1,2,3)            179.9579         estimate D2E/DX2                !
 ! D4    D(7,1,2,13)            -1.5599         estimate D2E/DX2                !
 ! D5    D(2,1,6,5)             -0.0421         estimate D2E/DX2                !
 ! D6    D(2,1,6,16)           178.4402         estimate D2E/DX2                !
 ! D7    D(7,1,6,5)            179.9579         estimate D2E/DX2                !
 ! D8    D(7,1,6,16)            -1.5598         estimate D2E/DX2                !
 ! D9    D(2,1,7,8)            -33.9172         estimate D2E/DX2                !
 ! D10   D(2,1,7,12)           146.083          estimate D2E/DX2                !
 ! D11   D(6,1,7,8)            146.0827         estimate D2E/DX2                !
 ! D12   D(6,1,7,12)           -33.9171         estimate D2E/DX2                !
 ! D13   D(1,2,3,4)              0.0851         estimate D2E/DX2                !
 ! D14   D(1,2,3,14)           179.6382         estimate D2E/DX2                !
 ! D15   D(13,2,3,4)          -178.3972         estimate D2E/DX2                !
 ! D16   D(13,2,3,14)            1.156          estimate D2E/DX2                !
 ! D17   D(2,3,4,5)             -0.0421         estimate D2E/DX2                !
 ! D18   D(2,3,4,64)           179.958          estimate D2E/DX2                !
 ! D19   D(14,3,4,5)          -179.5991         estimate D2E/DX2                !
 ! D20   D(14,3,4,64)            0.4011         estimate D2E/DX2                !
 ! D21   D(3,4,5,6)             -0.042          estimate D2E/DX2                !
 ! D22   D(3,4,5,15)          -179.599          estimate D2E/DX2                !
 ! D23   D(64,4,5,6)           179.9579         estimate D2E/DX2                !
 ! D24   D(64,4,5,15)            0.4009         estimate D2E/DX2                !
 ! D25   D(3,4,64,44)          109.9427         estimate D2E/DX2                !
 ! D26   D(3,4,64,45)          -70.0572         estimate D2E/DX2                !
 ! D27   D(5,4,64,44)          -70.0571         estimate D2E/DX2                !
 ! D28   D(5,4,64,45)          109.9429         estimate D2E/DX2                !
 ! D29   D(4,5,6,1)              0.085          estimate D2E/DX2                !
 ! D30   D(4,5,6,16)          -178.3973         estimate D2E/DX2                !
 ! D31   D(15,5,6,1)           179.6382         estimate D2E/DX2                !
 ! D32   D(15,5,6,16)            1.1559         estimate D2E/DX2                !
 ! D33   D(1,7,8,9)            179.8515         estimate D2E/DX2                !
 ! D34   D(1,7,8,17)            -2.6033         estimate D2E/DX2                !
 ! D35   D(12,7,8,9)            -0.1487         estimate D2E/DX2                !
 ! D36   D(12,7,8,17)          177.3965         estimate D2E/DX2                !
 ! D37   D(1,7,12,11)          179.8522         estimate D2E/DX2                !
 ! D38   D(1,7,12,18)           -2.6027         estimate D2E/DX2                !
 ! D39   D(8,7,12,11)           -0.1477         estimate D2E/DX2                !
 ! D40   D(8,7,12,18)          177.3975         estimate D2E/DX2                !
 ! D41   D(7,8,9,10)             0.2997         estimate D2E/DX2                !
 ! D42   D(7,8,9,43)           178.101          estimate D2E/DX2                !
 ! D43   D(17,8,9,10)         -177.2491         estimate D2E/DX2                !
 ! D44   D(17,8,9,43)            0.5522         estimate D2E/DX2                !
 ! D45   D(8,9,10,11)           -0.1472         estimate D2E/DX2                !
 ! D46   D(8,9,10,19)          179.8526         estimate D2E/DX2                !
 ! D47   D(43,9,10,11)        -177.9582         estimate D2E/DX2                !
 ! D48   D(43,9,10,19)           2.0416         estimate D2E/DX2                !
 ! D49   D(9,10,11,12)          -0.1487         estimate D2E/DX2                !
 ! D50   D(9,10,11,42)        -177.9606         estimate D2E/DX2                !
 ! D51   D(19,10,11,12)        179.8516         estimate D2E/DX2                !
 ! D52   D(19,10,11,42)          2.0396         estimate D2E/DX2                !
 ! D53   D(9,10,19,20)          50.0002         estimate D2E/DX2                !
 ! D54   D(9,10,19,28)        -129.9992         estimate D2E/DX2                !
 ! D55   D(11,10,19,20)       -130.0            Frozen                          !
 ! D56   D(11,10,19,28)         50.0005         estimate D2E/DX2                !
 ! D57   D(10,11,12,7)           0.2999         estimate D2E/DX2                !
 ! D58   D(10,11,12,18)       -177.2488         estimate D2E/DX2                !
 ! D59   D(42,11,12,7)         178.1022         estimate D2E/DX2                !
 ! D60   D(42,11,12,18)          0.5535         estimate D2E/DX2                !
 ! D61   D(10,19,20,21)       -130.0            Frozen                          !
 ! D62   D(10,19,20,22)         50.1912         estimate D2E/DX2                !
 ! D63   D(28,19,20,21)         49.9995         estimate D2E/DX2                !
 ! D64   D(28,19,20,22)       -129.8093         estimate D2E/DX2                !
 ! D65   D(10,19,28,29)         50.1913         estimate D2E/DX2                !
 ! D66   D(10,19,28,30)       -130.0            Frozen                          !
 ! D67   D(20,19,28,29)       -129.8082         estimate D2E/DX2                !
 ! D68   D(20,19,28,30)         50.0005         estimate D2E/DX2                !
 ! D69   D(19,20,21,23)        179.9049         estimate D2E/DX2                !
 ! D70   D(19,20,21,37)          1.1737         estimate D2E/DX2                !
 ! D71   D(22,20,21,23)         -0.2792         estimate D2E/DX2                !
 ! D72   D(22,20,21,37)       -179.0104         estimate D2E/DX2                !
 ! D73   D(19,20,22,24)        179.8684         estimate D2E/DX2                !
 ! D74   D(19,20,22,25)          1.271          estimate D2E/DX2                !
 ! D75   D(21,20,22,24)          0.0529         estimate D2E/DX2                !
 ! D76   D(21,20,22,25)       -178.5445         estimate D2E/DX2                !
 ! D77   D(20,21,23,26)          0.2828         estimate D2E/DX2                !
 ! D78   D(20,21,23,27)       -179.1828         estimate D2E/DX2                !
 ! D79   D(37,21,23,26)        179.003          estimate D2E/DX2                !
 ! D80   D(37,21,23,27)         -0.4626         estimate D2E/DX2                !
 ! D81   D(20,22,24,26)          0.1713         estimate D2E/DX2                !
 ! D82   D(20,22,24,38)       -179.2118         estimate D2E/DX2                !
 ! D83   D(25,22,24,26)        178.7572         estimate D2E/DX2                !
 ! D84   D(25,22,24,38)         -0.6259         estimate D2E/DX2                !
 ! D85   D(21,23,26,24)         -0.0523         estimate D2E/DX2                !
 ! D86   D(21,23,26,36)        179.8772         estimate D2E/DX2                !
 ! D87   D(27,23,26,24)        179.4108         estimate D2E/DX2                !
 ! D88   D(27,23,26,36)         -0.6597         estimate D2E/DX2                !
 ! D89   D(22,24,26,23)         -0.1727         estimate D2E/DX2                !
 ! D90   D(22,24,26,36)        179.8978         estimate D2E/DX2                !
 ! D91   D(38,24,26,23)        179.2075         estimate D2E/DX2                !
 ! D92   D(38,24,26,36)         -0.722          estimate D2E/DX2                !
 ! D93   D(19,28,29,31)        179.8678         estimate D2E/DX2                !
 ! D94   D(19,28,29,40)          1.2689         estimate D2E/DX2                !
 ! D95   D(30,28,29,31)          0.0523         estimate D2E/DX2                !
 ! D96   D(30,28,29,40)       -178.5466         estimate D2E/DX2                !
 ! D97   D(19,28,30,32)        179.9061         estimate D2E/DX2                !
 ! D98   D(19,28,30,41)          1.1749         estimate D2E/DX2                !
 ! D99   D(29,28,30,32)         -0.2781         estimate D2E/DX2                !
 ! D100  D(29,28,30,41)       -179.0093         estimate D2E/DX2                !
 ! D101  D(28,29,31,33)          0.1709         estimate D2E/DX2                !
 ! D102  D(28,29,31,34)       -179.212          estimate D2E/DX2                !
 ! D103  D(40,29,31,33)        178.7583         estimate D2E/DX2                !
 ! D104  D(40,29,31,34)         -0.6247         estimate D2E/DX2                !
 ! D105  D(28,30,32,33)          0.2822         estimate D2E/DX2                !
 ! D106  D(28,30,32,35)       -179.1832         estimate D2E/DX2                !
 ! D107  D(41,30,32,33)        179.0023         estimate D2E/DX2                !
 ! D108  D(41,30,32,35)         -0.4631         estimate D2E/DX2                !
 ! D109  D(29,31,33,32)         -0.1718         estimate D2E/DX2                !
 ! D110  D(29,31,33,39)        179.8983         estimate D2E/DX2                !
 ! D111  D(34,31,33,32)        179.2082         estimate D2E/DX2                !
 ! D112  D(34,31,33,39)         -0.7218         estimate D2E/DX2                !
 ! D113  D(30,32,33,31)         -0.0527         estimate D2E/DX2                !
 ! D114  D(30,32,33,39)        179.8773         estimate D2E/DX2                !
 ! D115  D(35,32,33,31)        179.4102         estimate D2E/DX2                !
 ! D116  D(35,32,33,39)         -0.6599         estimate D2E/DX2                !
 ! D117  D(47,44,46,50)         -1.216          estimate D2E/DX2                !
 ! D118  D(47,44,46,51)        178.4469         estimate D2E/DX2                !
 ! D119  D(64,44,46,50)        179.9138         estimate D2E/DX2                !
 ! D120  D(64,44,46,51)         -0.4233         estimate D2E/DX2                !
 ! D121  D(46,44,47,52)          1.3704         estimate D2E/DX2                !
 ! D122  D(46,44,47,65)       -178.2072         estimate D2E/DX2                !
 ! D123  D(64,44,47,52)       -179.7252         estimate D2E/DX2                !
 ! D124  D(64,44,47,65)          0.6973         estimate D2E/DX2                !
 ! D125  D(46,44,64,4)          -1.4939         estimate D2E/DX2                !
 ! D126  D(46,44,64,45)        178.5061         estimate D2E/DX2                !
 ! D127  D(47,44,64,4)         179.6544         estimate D2E/DX2                !
 ! D128  D(47,44,64,45)         -0.3456         estimate D2E/DX2                !
 ! D129  D(49,45,48,53)          1.3704         estimate D2E/DX2                !
 ! D130  D(49,45,48,65)       -178.2072         estimate D2E/DX2                !
 ! D131  D(64,45,48,53)       -179.7252         estimate D2E/DX2                !
 ! D132  D(64,45,48,65)          0.6972         estimate D2E/DX2                !
 ! D133  D(48,45,49,54)        178.4469         estimate D2E/DX2                !
 ! D134  D(48,45,49,55)         -1.216          estimate D2E/DX2                !
 ! D135  D(64,45,49,54)         -0.4232         estimate D2E/DX2                !
 ! D136  D(64,45,49,55)        179.9138         estimate D2E/DX2                !
 ! D137  D(48,45,64,4)         179.6544         estimate D2E/DX2                !
 ! D138  D(48,45,64,44)         -0.3455         estimate D2E/DX2                !
 ! D139  D(49,45,64,4)          -1.4939         estimate D2E/DX2                !
 ! D140  D(49,45,64,44)        178.5061         estimate D2E/DX2                !
 ! D141  D(44,46,50,56)          0.2468         estimate D2E/DX2                !
 ! D142  D(44,46,50,57)        179.9045         estimate D2E/DX2                !
 ! D143  D(51,46,50,56)       -179.4115         estimate D2E/DX2                !
 ! D144  D(51,46,50,57)          0.2462         estimate D2E/DX2                !
 ! D145  D(44,47,52,56)         -0.5864         estimate D2E/DX2                !
 ! D146  D(44,47,52,58)        179.6083         estimate D2E/DX2                !
 ! D147  D(65,47,52,56)        178.9824         estimate D2E/DX2                !
 ! D148  D(65,47,52,58)         -0.8229         estimate D2E/DX2                !
 ! D149  D(44,47,65,48)         -0.347          estimate D2E/DX2                !
 ! D150  D(44,47,65,66)        179.653          estimate D2E/DX2                !
 ! D151  D(52,47,65,48)       -179.9141         estimate D2E/DX2                !
 ! D152  D(52,47,65,66)          0.0859         estimate D2E/DX2                !
 ! D153  D(45,48,53,59)         -0.5864         estimate D2E/DX2                !
 ! D154  D(45,48,53,60)        179.6084         estimate D2E/DX2                !
 ! D155  D(65,48,53,59)        178.9824         estimate D2E/DX2                !
 ! D156  D(65,48,53,60)         -0.8228         estimate D2E/DX2                !
 ! D157  D(45,48,65,47)         -0.347          estimate D2E/DX2                !
 ! D158  D(45,48,65,66)        179.653          estimate D2E/DX2                !
 ! D159  D(53,48,65,47)       -179.9141         estimate D2E/DX2                !
 ! D160  D(53,48,65,66)          0.0858         estimate D2E/DX2                !
 ! D161  D(45,49,55,59)          0.2468         estimate D2E/DX2                !
 ! D162  D(45,49,55,61)        179.9045         estimate D2E/DX2                !
 ! D163  D(54,49,55,59)       -179.4116         estimate D2E/DX2                !
 ! D164  D(54,49,55,61)          0.2462         estimate D2E/DX2                !
 ! D165  D(46,50,56,52)          0.592          estimate D2E/DX2                !
 ! D166  D(46,50,56,62)       -179.8578         estimate D2E/DX2                !
 ! D167  D(57,50,56,52)       -179.0671         estimate D2E/DX2                !
 ! D168  D(57,50,56,62)          0.4831         estimate D2E/DX2                !
 ! D169  D(47,52,56,50)         -0.4064         estimate D2E/DX2                !
 ! D170  D(47,52,56,62)       -179.9535         estimate D2E/DX2                !
 ! D171  D(58,52,56,50)        179.394          estimate D2E/DX2                !
 ! D172  D(58,52,56,62)         -0.1531         estimate D2E/DX2                !
 ! D173  D(48,53,59,55)         -0.4063         estimate D2E/DX2                !
 ! D174  D(48,53,59,63)       -179.9535         estimate D2E/DX2                !
 ! D175  D(60,53,59,55)        179.394          estimate D2E/DX2                !
 ! D176  D(60,53,59,63)         -0.1531         estimate D2E/DX2                !
 ! D177  D(49,55,59,53)          0.5919         estimate D2E/DX2                !
 ! D178  D(49,55,59,63)       -179.8579         estimate D2E/DX2                !
 ! D179  D(61,55,59,53)       -179.0671         estimate D2E/DX2                !
 ! D180  D(61,55,59,63)          0.4831         estimate D2E/DX2                !
 --------------------------------------------------------------------------------
 Trust Radius=3.00D-01 FncErr=1.00D-07 GrdErr=1.00D-06 EigMax=2.50D+02 EigMin=1.00D-04
 Number of steps in this run=    379 maximum allowed number of steps=    396.
 GradGradGradGradGradGradGradGradGradGradGradGradGradGradGradGradGradGrad

 Leave Link  103 at Fri Aug 15 20:57:01 2025, MaxMem=  7516192768 cpu:               0.8 elap:               0.1
 (Enter /share/apps/softwares/gaussian/16/g16/l202.exe)
 Stoichiometry    C39H27(2)
 Framework group  C1[X(C39H27)]
 Deg. of freedom   192
 Full point group                 C1      NOp   1
 Largest Abelian subgroup         C1      NOp   1
 Largest concise Abelian subgroup C1      NOp   1
                         Standard orientation:                         
 ---------------------------------------------------------------------
 Center     Atomic      Atomic             Coordinates (Angstroms)
 Number     Number       Type             X           Y           Z
 ---------------------------------------------------------------------
      1          6           0        0.580171   -0.000016   -0.000008
      2          6           0        1.306000    0.872144    0.828555
      3          6           0        2.696834    0.871230    0.828890
      4          6           0        3.417197   -0.000006   -0.000005
      5          6           0        2.696842   -0.871248   -0.828902
      6          6           0        1.306008   -0.872172   -0.828569
      7          6           0       -0.896244   -0.000022   -0.000010
      8          6           0       -1.626627    0.261321    1.173885
      9          6           0       -3.011988    0.264996    1.176309
     10          6           0       -3.754397   -0.000016   -0.000013
     11          6           0       -3.011984   -0.265045   -1.176330
     12          6           0       -1.626623   -0.261374   -1.173904
     13          1           0        0.772809    1.574860    1.460665
     14          1           0        3.239238    1.557038    1.472204
     15          1           0        3.239253   -1.557053   -1.472214
     16          1           0        0.772825   -1.574891   -1.460681
     17          1           0       -1.094999    0.424807    2.105952
     18          1           0       -1.094994   -0.424869   -2.105968
     19          6           0       -5.207591   -0.000003   -0.000018
     20          6           0       -5.942230    1.122327    0.579337
     21          6           0       -6.982149    0.911803    1.513466
     22          6           0       -5.643746    2.457851    0.225024
     23          6           0       -7.679578    1.979658    2.065964
     24          6           0       -6.346961    3.522540    0.776576
     25          1           0       -4.866660    2.646239   -0.507310
     26          6           0       -7.368144    3.292137    1.701806
     27          1           0       -8.464874    1.788750    2.791345
     28          6           0       -5.942261   -1.122296   -0.579352
     29          6           0       -5.643810   -2.457830   -0.225014
     30          6           0       -6.982183   -0.911768   -1.513483
     31          6           0       -6.347061   -3.522509   -0.776532
     32          6           0       -7.679652   -1.979615   -2.065939
     33          6           0       -7.368258   -3.292096   -1.701750
     34          1           0       -6.104732   -4.537572   -0.476110
     35          1           0       -8.464950   -1.788702   -2.791315
     36          1           0       -7.915154    4.124822    2.132768
     37          1           0       -7.220361   -0.102199    1.814628
     38          1           0       -6.104609    4.537604    0.476170
     39          1           0       -7.915302   -4.124775   -2.132681
     40          1           0       -4.866703   -2.646222    0.507296
     41          1           0       -7.220362    0.102231   -1.814683
     42          1           0       -3.543094   -0.439702   -2.105088
     43          1           0       -3.543096    0.439625    2.105074
     44          6           0        5.609749   -1.097118    0.546616
     45          6           0        5.609747    1.097116   -0.546617
     46          6           0        4.946187   -2.217635    1.140039
     47          6           0        7.053908   -1.094680    0.536942
     48          6           0        7.053905    1.094683   -0.536939
     49          6           0        4.946182    2.217632   -1.140043
     50          6           0        5.654963   -3.267729    1.660340
     51          1           0        3.863502   -2.221304    1.177360
     52          6           0        7.753785   -2.212182    1.087112
     53          6           0        7.753779    2.212189   -1.087107
     54          1           0        3.863496    2.221295   -1.177367
     55          6           0        5.654956    3.267728   -1.660341
     56          6           0        7.078239   -3.270930    1.629589
     57          1           0        5.128889   -4.105966    2.106832
     58          1           0        8.839973   -2.198576    1.066692
     59          6           0        7.078232    3.270934   -1.629586
     60          1           0        8.839967    2.198587   -1.066683
     61          1           0        5.128880    4.105962   -2.106834
     62          1           0        7.622437   -4.113462    2.044975
     63          1           0        7.622428    4.113468   -2.044969
     64          6           0        4.906469   -0.000002   -0.000003
     65          6           0        7.735584    0.000004    0.000003
     66          1           0        8.822699    0.000005    0.000005
 ---------------------------------------------------------------------
 Rotational constants (GHZ):           0.2003214           0.0312189           0.0289761
 Leave Link  202 at Fri Aug 15 20:57:02 2025, MaxMem=  7516192768 cpu:               1.3 elap:               0.1
 (Enter /share/apps/softwares/gaussian/16/g16/l301.exe)
 Standard basis: 6-31G(d,p) (6D, 7F)
 Ernie: Thresh=  0.10000D-02 Tol=  0.10000D-05 Strict=F.
 There are   720 symmetry adapted cartesian basis functions of A   symmetry.
 There are   720 symmetry adapted basis functions of A   symmetry.
   720 basis functions,  1281 primitive gaussians,   720 cartesian basis functions
   131 alpha electrons      130 beta electrons
       nuclear repulsion energy      3548.8185247867 Hartrees.
 IExCor=  402 DFT=T Ex+Corr=B3LYP ExCW=0 ScaHFX=  0.200000
 ScaDFX=  0.800000  0.720000  1.000000  0.810000 ScalE2=  1.000000  1.000000
 IRadAn=      5 IRanWt=     -1 IRanGd=            0 ICorTp=0 IEmpDi=141
 NAtoms=   66 NActive=   66 NUniq=   66 SFac= 1.00D+00 NAtFMM=   60 NAOKFM=T Big=T
 Integral buffers will be    131072 words long.
 Raffenetti 2 integral format.
 Two-electron integral symmetry is turned on.
 R6Disp:  Grimme-D3(BJ) Dispersion energy=       -0.1713322829 Hartrees.
 Nuclear repulsion after empirical dispersion term =     3548.6471925038 Hartrees.
 Leave Link  301 at Fri Aug 15 20:57:02 2025, MaxMem=  7516192768 cpu:               2.4 elap:               0.2
 (Enter /share/apps/softwares/gaussian/16/g16/l302.exe)
 NPDir=0 NMtPBC=     1 NCelOv=     1 NCel=       1 NClECP=     1 NCelD=      1
         NCelK=      1 NCelE2=     1 NClLst=     1 CellRange=     0.0.
 One-electron integrals computed using PRISM.
 One-electron integral symmetry used in STVInt
 NBasis=   720 RedAO= T EigKep=  1.82D-04  NBF=   720
 NBsUse=   720 1.00D-06 EigRej= -1.00D+00 NBFU=   720
 Precomputing XC quadrature grid using
 IXCGrd= 4 IRadAn=           5 IRanWt=          -1 IRanGd=           0 AccXCQ= 0.00D+00.
 Generated NRdTot=       0 NPtTot=           0 NUsed=           0 NTot=          32
 NSgBfM=   668   668   668   668   668 MxSgAt=    66 MxSgA2=    66.
 Leave Link  302 at Fri Aug 15 20:57:03 2025, MaxMem=  7516192768 cpu:              27.2 elap:               1.2
 (Enter /share/apps/softwares/gaussian/16/g16/l303.exe)
 DipDrv:  MaxL=1.
 Leave Link  303 at Fri Aug 15 20:57:03 2025, MaxMem=  7516192768 cpu:               2.6 elap:               0.2
 (Enter /share/apps/softwares/gaussian/16/g16/l401.exe)
 ExpMin= 1.61D-01 ExpMax= 3.05D+03 ExpMxC= 4.57D+02 IAcc=3 IRadAn=         5 AccDes= 0.00D+00
 Harris functional with IExCor=  402 and IRadAn=       5 diagonalized for initial guess.
 HarFok:  IExCor=  402 AccDes= 0.00D+00 IRadAn=         5 IDoV= 1 UseB2=F ITyADJ=14
 ICtDFT=  3500011 ScaDFX=  1.000000  1.000000  1.000000  1.000000
 FoFCou: FMM=F IPFlag=           0 FMFlag=      100000 FMFlg1=        2001
         NFxFlg=           0 DoJE=T BraDBF=F KetDBF=T FulRan=T
         wScrn=  0.000000 ICntrl=       500 IOpCl=  0 I1Cent=   200000004 NGrid=           0
         NMat0=    1 NMatS0=      1 NMatT0=    0 NMatD0=    1 NMtDS0=    0 NMtDT0=    0
 Petite list used in FoFCou.
 Harris En= -1502.65747528880    
 JPrj=0 DoOrth=F DoCkMO=F.
 Initial guess <Sx>= 0.0000 <Sy>= 0.0000 <Sz>= 0.5000 <S**2>= 0.7500 S= 0.5000
 Leave Link  401 at Fri Aug 15 20:57:07 2025, MaxMem=  7516192768 cpu:              78.1 elap:               3.3
 (Enter /share/apps/softwares/gaussian/16/g16/l502.exe)
 Integral symmetry usage will be decided dynamically.
 UHF open shell SCF:
 Using DIIS extrapolation, IDIIS=  1040.
 NGot=  7516192768 LenX=  7515129813 LenY=  7514610693
 Requested convergence on RMS density matrix=1.00D-08 within 128 cycles.
 Requested convergence on MAX density matrix=1.00D-06.
 Requested convergence on             energy=1.00D-06.
 No special actions if energy rises.
 Fock matrices will be formed incrementally for  20 cycles.
 Integral accuracy reduced to 1.0D-05 until final iterations.

 Cycle   1  Pass 0  IDiag  1:
 FoFJK:  IHMeth= 1 ICntrl=       0 DoSepK=F KAlg= 0 I1Cent=           0 FoldK=F
 IRaf= 680000000 NMat=       1 IRICut=       1 DoRegI=T DoRafI=F ISym2E= 0 IDoP0=0 IntGTp=1.
 FoFCou: FMM=T IPFlag=           0 FMFlag=      100000 FMFlg1=        2001
         NFxFlg=           0 DoJE=F BraDBF=F KetDBF=F FulRan=T
         wScrn=  0.000000 ICntrl=         0 IOpCl=  1 I1Cent=           0 NGrid=           0
         NMat0=    1 NMatS0=      1 NMatT0=    0 NMatD0=    1 NMtDS0=    0 NMtDT0=    0
 Symmetry not used in FoFCou.
 FMM levels:  10  Number of levels for PrismC:   9
 E= -1501.85797720638    
 DIIS: error= 4.02D-02 at cycle   1 NSaved=   1.
 NSaved= 1 IEnMin= 1 EnMin= -1501.85797720638     IErMin= 1 ErrMin= 4.02D-02
 ErrMax= 4.02D-02  0.00D+00 EMaxC= 1.00D-01 BMatC= 2.73D+00 BMatP= 2.73D+00
 IDIUse=3 WtCom= 5.98D-01 WtEn= 4.02D-01
 Coeff-Com:  0.100D+01
 Coeff-En:   0.100D+01
 Coeff:      0.100D+01
 Gap=     0.117 Goal=   None    Shift=    0.000
 Gap=     0.086 Goal=   None    Shift=    0.000
 GapD=    0.086 DampG=0.500 DampE=0.500 DampFc=0.2500 IDamp=-1.
 Damping current iteration by 2.50D-01
 RMSDP=2.87D-03 MaxDP=1.12D-01              OVMax= 1.48D-01

 Cycle   2  Pass 0  IDiag  1:
 RMSU=  6.86D-04    CP:  9.82D-01
 E= -1502.12585752529     Delta-E=       -0.267880318910 Rises=F Damp=T
 DIIS: error= 2.30D-02 at cycle   2 NSaved=   2.
 NSaved= 2 IEnMin= 2 EnMin= -1502.12585752529     IErMin= 2 ErrMin= 2.30D-02
 ErrMax= 2.30D-02  0.00D+00 EMaxC= 1.00D-01 BMatC= 8.80D-01 BMatP= 2.73D+00
 IDIUse=3 WtCom= 7.70D-01 WtEn= 2.30D-01
 Coeff-Com: -0.111D+01 0.211D+01
 Coeff-En:   0.000D+00 0.100D+01
 Coeff:     -0.855D+00 0.186D+01
 Gap=     0.094 Goal=   None    Shift=    0.000
 Gap=     0.110 Goal=   None    Shift=    0.000
 RMSDP=1.32D-03 MaxDP=8.09D-02 DE=-2.68D-01 OVMax= 9.84D-02

 Cycle   3  Pass 0  IDiag  1:
 RMSU=  7.60D-04    CP:  9.43D-01  2.41D+00
 E= -1502.60802663552     Delta-E=       -0.482169110235 Rises=F Damp=F
 DIIS: error= 4.43D-03 at cycle   3 NSaved=   3.
 NSaved= 3 IEnMin= 3 EnMin= -1502.60802663552     IErMin= 3 ErrMin= 4.43D-03
 ErrMax= 4.43D-03  0.00D+00 EMaxC= 1.00D-01 BMatC= 6.92D-02 BMatP= 8.80D-01
 IDIUse=3 WtCom= 9.56D-01 WtEn= 4.43D-02
 Coeff-Com: -0.344D+00 0.690D+00 0.654D+00
 Coeff-En:   0.000D+00 0.000D+00 0.100D+01
 Coeff:     -0.329D+00 0.660D+00 0.669D+00
 Gap=     0.114 Goal=   None    Shift=    0.000
 Gap=     0.095 Goal=   None    Shift=    0.000
 RMSDP=4.51D-04 MaxDP=4.94D-02 DE=-4.82D-01 OVMax= 9.26D-02

 Cycle   4  Pass 0  IDiag  1:
 RMSU=  4.08D-04    CP:  9.45D-01  2.31D+00  7.67D-01
 E= -1502.60791956864     Delta-E=        0.000107066878 Rises=F Damp=F
 DIIS: error= 6.41D-03 at cycle   4 NSaved=   4.
 NSaved= 4 IEnMin= 3 EnMin= -1502.60802663552     IErMin= 3 ErrMin= 4.43D-03
 ErrMax= 6.41D-03  0.00D+00 EMaxC= 1.00D-01 BMatC= 6.66D-02 BMatP= 6.92D-02
 IDIUse=3 WtCom= 9.36D-01 WtEn= 6.41D-02
 Coeff-Com: -0.408D-01 0.111D+00 0.487D+00 0.443D+00
 Coeff-En:   0.000D+00 0.000D+00 0.501D+00 0.499D+00
 Coeff:     -0.382D-01 0.104D+00 0.488D+00 0.447D+00
 Gap=     0.102 Goal=   None    Shift=    0.000
 Gap=     0.107 Goal=   None    Shift=    0.000
 RMSDP=2.68D-04 MaxDP=1.63D-02 DE= 1.07D-04 OVMax= 5.14D-02

 Cycle   5  Pass 0  IDiag  1:
 RMSU=  1.16D-04    CP:  9.45D-01  2.32D+00  8.42D-01  4.26D-01
 E= -1502.62634239106     Delta-E=       -0.018422822413 Rises=F Damp=F
 DIIS: error= 1.69D-03 at cycle   5 NSaved=   5.
 NSaved= 5 IEnMin= 5 EnMin= -1502.62634239106     IErMin= 5 ErrMin= 1.69D-03
 ErrMax= 1.69D-03  0.00D+00 EMaxC= 1.00D-01 BMatC= 4.89D-03 BMatP= 6.66D-02
 IDIUse=3 WtCom= 9.83D-01 WtEn= 1.69D-02
 Coeff-Com:  0.657D-02 0.256D-02 0.229D+00 0.278D+00 0.484D+00
 Coeff-En:   0.000D+00 0.000D+00 0.000D+00 0.243D-01 0.976D+00
 Coeff:      0.646D-02 0.251D-02 0.225D+00 0.273D+00 0.492D+00
 Gap=     0.103 Goal=   None    Shift=    0.000
 Gap=     0.106 Goal=   None    Shift=    0.000
 RMSDP=7.35D-05 MaxDP=5.39D-03 DE=-1.84D-02 OVMax= 1.20D-02

 Cycle   6  Pass 0  IDiag  1:
 RMSU=  4.82D-05    CP:  9.45D-01  2.33D+00  8.46D-01  4.92D-01  5.86D-01
 E= -1502.62758914017     Delta-E=       -0.001246749111 Rises=F Damp=F
 DIIS: error= 6.57D-04 at cycle   6 NSaved=   6.
 NSaved= 6 IEnMin= 6 EnMin= -1502.62758914017     IErMin= 6 ErrMin= 6.57D-04
 ErrMax= 6.57D-04  0.00D+00 EMaxC= 1.00D-01 BMatC= 7.17D-04 BMatP= 4.89D-03
 IDIUse=3 WtCom= 9.93D-01 WtEn= 6.57D-03
 Coeff-Com:  0.819D-02-0.119D-01 0.641D-01 0.100D+00 0.310D+00 0.529D+00
 Coeff-En:   0.000D+00 0.000D+00 0.000D+00 0.000D+00 0.110D+00 0.890D+00
 Coeff:      0.814D-02-0.118D-01 0.637D-01 0.997D-01 0.309D+00 0.531D+00
 Gap=     0.104 Goal=   None    Shift=    0.000
 Gap=     0.106 Goal=   None    Shift=    0.000
 RMSDP=2.70D-05 MaxDP=2.12D-03 DE=-1.25D-03 OVMax= 4.49D-03

 Cycle   7  Pass 0  IDiag  1:
 RMSU=  1.69D-05    CP:  9.45D-01  2.33D+00  8.52D-01  5.00D-01  6.85D-01
                    CP:  6.52D-01
 E= -1502.62779735630     Delta-E=       -0.000208216134 Rises=F Damp=F
 DIIS: error= 2.43D-04 at cycle   7 NSaved=   7.
 NSaved= 7 IEnMin= 7 EnMin= -1502.62779735630     IErMin= 7 ErrMin= 2.43D-04
 ErrMax= 2.43D-04  0.00D+00 EMaxC= 1.00D-01 BMatC= 8.33D-05 BMatP= 7.17D-04
 IDIUse=3 WtCom= 9.98D-01 WtEn= 2.43D-03
 Coeff-Com:  0.416D-02-0.735D-02 0.116D-01 0.271D-01 0.123D+00 0.297D+00
 Coeff-Com:  0.545D+00
 Coeff-En:   0.000D+00 0.000D+00 0.000D+00 0.000D+00 0.000D+00 0.000D+00
 Coeff-En:   0.100D+01
 Coeff:      0.415D-02-0.733D-02 0.115D-01 0.270D-01 0.122D+00 0.297D+00
 Coeff:      0.546D+00
 Gap=     0.104 Goal=   None    Shift=    0.000
 Gap=     0.107 Goal=   None    Shift=    0.000
 RMSDP=1.07D-05 MaxDP=1.11D-03 DE=-2.08D-04 OVMax= 1.85D-03

 Cycle   8  Pass 0  IDiag  1:
 RMSU=  8.85D-06    CP:  9.45D-01  2.33D+00  8.51D-01  5.03D-01  6.92D-01
                    CP:  7.59D-01  8.52D-01
 E= -1502.62782711336     Delta-E=       -0.000029757057 Rises=F Damp=F
 DIIS: error= 1.79D-04 at cycle   8 NSaved=   8.
 NSaved= 8 IEnMin= 8 EnMin= -1502.62782711336     IErMin= 8 ErrMin= 1.79D-04
 ErrMax= 1.79D-04  0.00D+00 EMaxC= 1.00D-01 BMatC= 2.43D-05 BMatP= 8.33D-05
 IDIUse=3 WtCom= 9.98D-01 WtEn= 1.79D-03
 Coeff-Com: -0.138D-02 0.110D-02-0.243D-01-0.321D-01-0.725D-01-0.689D-01
 Coeff-Com:  0.339D+00 0.859D+00
 Coeff-En:   0.000D+00 0.000D+00 0.000D+00 0.000D+00 0.000D+00 0.000D+00
 Coeff-En:   0.000D+00 0.100D+01
 Coeff:     -0.137D-02 0.109D-02-0.242D-01-0.320D-01-0.724D-01-0.688D-01
 Coeff:      0.339D+00 0.859D+00
 Gap=     0.104 Goal=   None    Shift=    0.000
 Gap=     0.107 Goal=   None    Shift=    0.000
 RMSDP=9.53D-06 MaxDP=1.03D-03 DE=-2.98D-05 OVMax= 1.98D-03

 Cycle   9  Pass 0  IDiag  1:
 RMSU=  5.54D-06    CP:  9.45D-01  2.33D+00  8.51D-01  5.06D-01  7.14D-01
                    CP:  8.09D-01  1.25D+00  1.02D+00
 E= -1502.62784202589     Delta-E=       -0.000014912535 Rises=F Damp=F
 DIIS: error= 1.05D-04 at cycle   9 NSaved=   9.
 NSaved= 9 IEnMin= 9 EnMin= -1502.62784202589     IErMin= 9 ErrMin= 1.05D-04
 ErrMax= 1.05D-04  0.00D+00 EMaxC= 1.00D-01 BMatC= 1.30D-05 BMatP= 2.43D-05
 IDIUse=3 WtCom= 9.99D-01 WtEn= 1.05D-03
 Coeff-Com: -0.214D-02 0.277D-02-0.202D-01-0.295D-01-0.807D-01-0.117D+00
 Coeff-Com:  0.117D+00 0.624D+00 0.506D+00
 Coeff-En:   0.000D+00 0.000D+00 0.000D+00 0.000D+00 0.000D+00 0.000D+00
 Coeff-En:   0.000D+00 0.000D+00 0.100D+01
 Coeff:     -0.214D-02 0.277D-02-0.202D-01-0.295D-01-0.806D-01-0.117D+00
 Coeff:      0.117D+00 0.624D+00 0.506D+00
 Gap=     0.104 Goal=   None    Shift=    0.000
 Gap=     0.108 Goal=   None    Shift=    0.000
 RMSDP=4.84D-06 MaxDP=3.50D-04 DE=-1.49D-05 OVMax= 1.08D-03

 Initial convergence to 1.0D-05 achieved.  Increase integral accuracy.
 Cycle  10  Pass 1  IDiag  1:
 E= -1502.62789922111     Delta-E=       -0.000057195221 Rises=F Damp=F
 DIIS: error= 2.68D-04 at cycle   1 NSaved=   1.
 NSaved= 1 IEnMin= 1 EnMin= -1502.62789922111     IErMin= 1 ErrMin= 2.68D-04
 ErrMax= 2.68D-04  0.00D+00 EMaxC= 1.00D-01 BMatC= 4.75D-05 BMatP= 4.75D-05
 IDIUse=3 WtCom= 9.97D-01 WtEn= 2.68D-03
 Coeff-Com:  0.100D+01
 Coeff-En:   0.100D+01
 Coeff:      0.100D+01
 Gap=     0.105 Goal=   None    Shift=    0.000
 Gap=     0.107 Goal=   None    Shift=    0.000
 RMSDP=4.84D-06 MaxDP=3.50D-04 DE=-5.72D-05 OVMax= 1.00D-03

 Cycle  11  Pass 1  IDiag  1:
 RMSU=  9.01D-05    CP:  1.00D+00
 E= -1502.62790710351     Delta-E=       -0.000007882400 Rises=F Damp=F
 DIIS: error= 8.48D-05 at cycle   2 NSaved=   2.
 NSaved= 2 IEnMin= 2 EnMin= -1502.62790710351     IErMin= 2 ErrMin= 8.48D-05
 ErrMax= 8.48D-05  0.00D+00 EMaxC= 1.00D-01 BMatC= 9.16D-06 BMatP= 4.75D-05
 IDIUse=1 WtCom= 1.00D+00 WtEn= 0.00D+00
 Coeff-Com:  0.193D+00 0.807D+00
 Coeff:      0.193D+00 0.807D+00
 Gap=     0.104 Goal=   None    Shift=    0.000
 Gap=     0.108 Goal=   None    Shift=    0.000
 RMSDP=7.24D-06 MaxDP=4.76D-04 DE=-7.88D-06 OVMax= 2.01D-03

 Cycle  12  Pass 1  IDiag  1:
 RMSU=  7.22D-06    CP:  1.00D+00  1.01D+00
 E= -1502.62790176622     Delta-E=        0.000005337291 Rises=F Damp=F
 DIIS: error= 1.58D-04 at cycle   3 NSaved=   3.
 NSaved= 3 IEnMin= 2 EnMin= -1502.62790710351     IErMin= 2 ErrMin= 8.48D-05
 ErrMax= 1.58D-04  0.00D+00 EMaxC= 1.00D-01 BMatC= 2.84D-05 BMatP= 9.16D-06
 IDIUse=3 WtCom= 4.43D-01 WtEn= 5.57D-01
 Coeff-Com: -0.661D-02 0.644D+00 0.363D+00
 Coeff-En:   0.000D+00 0.686D+00 0.314D+00
 Coeff:     -0.293D-02 0.667D+00 0.336D+00
 Gap=     0.105 Goal=   None    Shift=    0.000
 Gap=     0.108 Goal=   None    Shift=    0.000
 RMSDP=4.24D-06 MaxDP=3.16D-04 DE= 5.34D-06 OVMax= 1.24D-03

 Cycle  13  Pass 1  IDiag  1:
 RMSU=  1.15D-06    CP:  1.00D+00  1.01D+00  4.37D-01
 E= -1502.62791027004     Delta-E=       -0.000008503823 Rises=F Damp=F
 DIIS: error= 1.80D-05 at cycle   4 NSaved=   4.
 NSaved= 4 IEnMin= 4 EnMin= -1502.62791027004     IErMin= 4 ErrMin= 1.80D-05
 ErrMax= 1.80D-05  0.00D+00 EMaxC= 1.00D-01 BMatC= 4.85D-07 BMatP= 9.16D-06
 IDIUse=1 WtCom= 1.00D+00 WtEn= 0.00D+00
 Coeff-Com: -0.727D-02 0.349D+00 0.158D+00 0.501D+00
 Coeff:     -0.727D-02 0.349D+00 0.158D+00 0.501D+00
 Gap=     0.105 Goal=   None    Shift=    0.000
 Gap=     0.107 Goal=   None    Shift=    0.000
 RMSDP=7.08D-07 MaxDP=6.56D-05 DE=-8.50D-06 OVMax= 1.58D-04

 Cycle  14  Pass 1  IDiag  1:
 RMSU=  6.35D-07    CP:  1.00D+00  1.01D+00  3.98D-01  1.11D+00
 E= -1502.62791047718     Delta-E=       -0.000000207140 Rises=F Damp=F
 DIIS: error= 1.29D-05 at cycle   5 NSaved=   5.
 NSaved= 5 IEnMin= 5 EnMin= -1502.62791047718     IErMin= 5 ErrMin= 1.29D-05
 ErrMax= 1.29D-05  0.00D+00 EMaxC= 1.00D-01 BMatC= 1.24D-07 BMatP= 4.85D-07
 IDIUse=1 WtCom= 1.00D+00 WtEn= 0.00D+00
 Coeff-Com:  0.372D-02-0.567D+00-0.340D+00 0.288D+00 0.162D+01
 Coeff:      0.372D-02-0.567D+00-0.340D+00 0.288D+00 0.162D+01
 Gap=     0.105 Goal=   None    Shift=    0.000
 Gap=     0.108 Goal=   None    Shift=    0.000
 RMSDP=1.43D-06 MaxDP=1.40D-04 DE=-2.07D-07 OVMax= 3.57D-04

 Cycle  15  Pass 1  IDiag  1:
 RMSU=  4.10D-07    CP:  1.00D+00  1.01D+00  4.26D-01  2.23D+00  1.67D+00
 E= -1502.62791071457     Delta-E=       -0.000000237381 Rises=F Damp=F
 DIIS: error= 6.74D-06 at cycle   6 NSaved=   6.
 NSaved= 6 IEnMin= 6 EnMin= -1502.62791071457     IErMin= 6 ErrMin= 6.74D-06
 ErrMax= 6.74D-06  0.00D+00 EMaxC= 1.00D-01 BMatC= 8.73D-08 BMatP= 1.24D-07
 IDIUse=1 WtCom= 1.00D+00 WtEn= 0.00D+00
 Coeff-Com:  0.453D-02-0.517D+00-0.297D+00 0.107D+00 0.125D+01 0.454D+00
 Coeff:      0.453D-02-0.517D+00-0.297D+00 0.107D+00 0.125D+01 0.454D+00
 Gap=     0.105 Goal=   None    Shift=    0.000
 Gap=     0.108 Goal=   None    Shift=    0.000
 RMSDP=4.56D-07 MaxDP=4.64D-05 DE=-2.37D-07 OVMax= 1.13D-04

 Cycle  16  Pass 1  IDiag  1:
 RMSU=  1.99D-07    CP:  1.00D+00  1.01D+00  4.35D-01  2.49D+00  2.05D+00
                    CP:  6.75D-01
 E= -1502.62791075082     Delta-E=       -0.000000036257 Rises=F Damp=F
 DIIS: error= 2.33D-06 at cycle   7 NSaved=   7.
 NSaved= 7 IEnMin= 7 EnMin= -1502.62791075082     IErMin= 7 ErrMin= 2.33D-06
 ErrMax= 2.33D-06  0.00D+00 EMaxC= 1.00D-01 BMatC= 5.20D-09 BMatP= 8.73D-08
 IDIUse=1 WtCom= 1.00D+00 WtEn= 0.00D+00
 Coeff-Com:  0.239D-02-0.260D+00-0.148D+00 0.389D-01 0.606D+00 0.274D+00
 Coeff-Com:  0.488D+00
 Coeff:      0.239D-02-0.260D+00-0.148D+00 0.389D-01 0.606D+00 0.274D+00
 Coeff:      0.488D+00
 Gap=     0.105 Goal=   None    Shift=    0.000
 Gap=     0.108 Goal=   None    Shift=    0.000
 RMSDP=9.56D-08 MaxDP=6.04D-06 DE=-3.63D-08 OVMax= 2.08D-05

 Cycle  17  Pass 1  IDiag  1:
 RMSU=  6.93D-08    CP:  1.00D+00  1.01D+00  4.37D-01  2.52D+00  2.07D+00
                    CP:  7.54D-01  8.15D-01
 E= -1502.62791075243     Delta-E=       -0.000000001603 Rises=F Damp=F
 DIIS: error= 7.82D-07 at cycle   8 NSaved=   8.
 NSaved= 8 IEnMin= 8 EnMin= -1502.62791075243     IErMin= 8 ErrMin= 7.82D-07
 ErrMax= 7.82D-07  0.00D+00 EMaxC= 1.00D-01 BMatC= 1.23D-09 BMatP= 5.20D-09
 IDIUse=1 WtCom= 1.00D+00 WtEn= 0.00D+00
 Coeff-Com:  0.600D-03-0.599D-01-0.337D-01 0.227D-02 0.130D+00 0.842D-01
 Coeff-Com:  0.336D+00 0.540D+00
 Coeff:      0.600D-03-0.599D-01-0.337D-01 0.227D-02 0.130D+00 0.842D-01
 Coeff:      0.336D+00 0.540D+00
 Gap=     0.105 Goal=   None    Shift=    0.000
 Gap=     0.108 Goal=   None    Shift=    0.000
 RMSDP=3.91D-08 MaxDP=3.94D-06 DE=-1.60D-09 OVMax= 7.56D-06

 Cycle  18  Pass 1  IDiag  1:
 RMSU=  2.74D-08    CP:  1.00D+00  1.01D+00  4.37D-01  2.53D+00  2.08D+00
                    CP:  7.58D-01  8.88D-01  6.80D-01
 E= -1502.62791075284     Delta-E=       -0.000000000413 Rises=F Damp=F
 DIIS: error= 2.69D-07 at cycle   9 NSaved=   9.
 NSaved= 9 IEnMin= 9 EnMin= -1502.62791075284     IErMin= 9 ErrMin= 2.69D-07
 ErrMax= 2.69D-07  0.00D+00 EMaxC= 1.00D-01 BMatC= 9.69D-11 BMatP= 1.23D-09
 IDIUse=1 WtCom= 1.00D+00 WtEn= 0.00D+00
 Coeff-Com: -0.278D-03 0.322D-01 0.184D-01-0.675D-02-0.776D-01-0.280D-01
 Coeff-Com:  0.756D-02 0.153D+00 0.901D+00
 Coeff:     -0.278D-03 0.322D-01 0.184D-01-0.675D-02-0.776D-01-0.280D-01
 Coeff:      0.756D-02 0.153D+00 0.901D+00
 Gap=     0.105 Goal=   None    Shift=    0.000
 Gap=     0.108 Goal=   None    Shift=    0.000
 RMSDP=2.08D-08 MaxDP=1.89D-06 DE=-4.13D-10 OVMax= 5.65D-06

 Cycle  19  Pass 1  IDiag  1:
 RMSU=  1.58D-08    CP:  1.00D+00  1.01D+00  4.36D-01  2.53D+00  2.08D+00
                    CP:  7.67D-01  9.13D-01  7.77D-01  1.33D+00
 E= -1502.62791075297     Delta-E=       -0.000000000136 Rises=F Damp=F
 DIIS: error= 1.79D-07 at cycle  10 NSaved=  10.
 NSaved=10 IEnMin=10 EnMin= -1502.62791075297     IErMin=10 ErrMin= 1.79D-07
 ErrMax= 1.79D-07  0.00D+00 EMaxC= 1.00D-01 BMatC= 4.74D-11 BMatP= 9.69D-11
 IDIUse=1 WtCom= 1.00D+00 WtEn= 0.00D+00
 Coeff-Com: -0.322D-03 0.343D-01 0.194D-01-0.425D-02-0.784D-01-0.390D-01
 Coeff-Com: -0.927D-01-0.816D-01 0.458D+00 0.784D+00
 Coeff:     -0.322D-03 0.343D-01 0.194D-01-0.425D-02-0.784D-01-0.390D-01
 Coeff:     -0.927D-01-0.816D-01 0.458D+00 0.784D+00
 Gap=     0.105 Goal=   None    Shift=    0.000
 Gap=     0.108 Goal=   None    Shift=    0.000
 RMSDP=1.55D-08 MaxDP=1.42D-06 DE=-1.36D-10 OVMax= 4.87D-06

 Cycle  20  Pass 1  IDiag  1:
 RMSU=  7.99D-09    CP:  1.00D+00  1.01D+00  4.36D-01  2.53D+00  2.08D+00
                    CP:  7.71D-01  9.29D-01  8.27D-01  1.73D+00  1.35D+00
 E= -1502.62791075306     Delta-E=       -0.000000000084 Rises=F Damp=F
 DIIS: error= 1.12D-07 at cycle  11 NSaved=  11.
 NSaved=11 IEnMin=11 EnMin= -1502.62791075306     IErMin=11 ErrMin= 1.12D-07
 ErrMax= 1.12D-07  0.00D+00 EMaxC= 1.00D-01 BMatC= 1.56D-11 BMatP= 4.74D-11
 IDIUse=1 WtCom= 1.00D+00 WtEn= 0.00D+00
 Coeff-Com: -0.191D-04 0.985D-03 0.504D-03 0.103D-02-0.556D-03-0.476D-02
 Coeff-Com: -0.426D-01-0.102D+00-0.180D+00 0.343D+00 0.985D+00
 Coeff:     -0.191D-04 0.985D-03 0.504D-03 0.103D-02-0.556D-03-0.476D-02
 Coeff:     -0.426D-01-0.102D+00-0.180D+00 0.343D+00 0.985D+00
 Gap=     0.105 Goal=   None    Shift=    0.000
 Gap=     0.108 Goal=   None    Shift=    0.000
 RMSDP=1.37D-08 MaxDP=1.10D-06 DE=-8.37D-11 OVMax= 5.11D-06

 Cycle  21  Pass 1  IDiag  1:
 RMSU=  5.39D-09    CP:  1.00D+00  1.01D+00  4.36D-01  2.53D+00  2.09D+00
                    CP:  7.73D-01  9.38D-01  8.67D-01  2.04D+00  1.88D+00
                    CP:  1.23D+00
 E= -1502.62791075307     Delta-E=       -0.000000000010 Rises=F Damp=F
 DIIS: error= 7.70D-08 at cycle  12 NSaved=  12.
 NSaved=12 IEnMin=12 EnMin= -1502.62791075307     IErMin=12 ErrMin= 7.70D-08
 ErrMax= 7.70D-08  0.00D+00 EMaxC= 1.00D-01 BMatC= 8.30D-12 BMatP= 1.56D-11
 IDIUse=1 WtCom= 1.00D+00 WtEn= 0.00D+00
 Coeff-Com:  0.897D-04-0.102D-01-0.584D-02 0.203D-02 0.245D-01 0.930D-02
 Coeff-Com:  0.114D-02-0.416D-01-0.267D+00-0.243D-01 0.656D+00 0.656D+00
 Coeff:      0.897D-04-0.102D-01-0.584D-02 0.203D-02 0.245D-01 0.930D-02
 Coeff:      0.114D-02-0.416D-01-0.267D+00-0.243D-01 0.656D+00 0.656D+00
 Gap=     0.105 Goal=   None    Shift=    0.000
 Gap=     0.108 Goal=   None    Shift=    0.000
 RMSDP=7.21D-09 MaxDP=6.10D-07 DE=-1.00D-11 OVMax= 2.98D-06

 SCF Done:  E(UB3LYP) =  -1502.62791075     A.U. after   21 cycles
            NFock= 21  Conv=0.72D-08     -V/T= 2.0098
 <Sx>= 0.0000 <Sy>= 0.0000 <Sz>= 0.5000 <S**2>= 0.7710 S= 0.5104
 <L.S>=  0.00000000000    
 KE= 1.487985561152D+03 PE=-1.057627870876D+04 EE= 4.037018044354D+03
 Annihilation of the first spin contaminant:
 S**2 before annihilation     0.7710,   after     0.7504
 Leave Link  502 at Fri Aug 15 20:59:51 2025, MaxMem=  7516192768 cpu:            3922.5 elap:             164.0
 (Enter /share/apps/softwares/gaussian/16/g16/l601.exe)
 Copying SCF densities to generalized density rwf, IOpCl= 1 IROHF=0.

 **********************************************************************

            Population analysis using the SCF Density.

 **********************************************************************

 Orbital symmetries:
 Alpha Orbitals:
       Occupied  (A) (A) (A) (A) (A) (A) (A) (A) (A) (A) (A) (A)
                 (A) (A) (A) (A) (A) (A) (A) (A) (A) (A) (A) (A)
                 (A) (A) (A) (A) (A) (A) (A) (A) (A) (A) (A) (A)
                 (A) (A) (A) (A) (A) (A) (A) (A) (A) (A) (A) (A)
                 (A) (A) (A) (A) (A) (A) (A) (A) (A) (A) (A) (A)
                 (A) (A) (A) (A) (A) (A) (A) (A) (A) (A) (A) (A)
                 (A) (A) (A) (A) (A) (A) (A) (A) (A) (A) (A) (A)
                 (A) (A) (A) (A) (A) (A) (A) (A) (A) (A) (A) (A)
                 (A) (A) (A) (A) (A) (A) (A) (A) (A) (A) (A) (A)
                 (A) (A) (A) (A) (A) (A) (A) (A) (A) (A) (A) (A)
                 (A) (A) (A) (A) (A) (A) (A) (A) (A) (A) (A)
       Virtual   (A) (A) (A) (A) (A) (A) (A) (A) (A) (A) (A) (A)
                 (A) (A) (A) (A) (A) (A) (A) (A) (A) (A) (A) (A)
                 (A) (A) (A) (A) (A) (A) (A) (A) (A) (A) (A) (A)
                 (A) (A) (A) (A) (A) (A) (A) (A) (A) (A) (A) (A)
                 (A) (A) (A) (A) (A) (A) (A) (A) (A) (A) (A) (A)
                 (A) (A) (A) (A) (A) (A) (A) (A) (A) (A) (A) (A)
                 (A) (A) (A) (A) (A) (A) (A) (A) (A) (A) (A) (A)
                 (A) (A) (A) (A) (A) (A) (A) (A) (A) (A) (A) (A)
                 (A) (A) (A) (A) (A) (A) (A) (A) (A) (A) (A) (A)
                 (A) (A) (A) (A) (A) (A) (A) (A) (A) (A) (A) (A)
                 (A) (A) (A) (A) (A) (A) (A) (A) (A) (A) (A) (A)
                 (A) (A) (A) (A) (A) (A) (A) (A) (A) (A) (A) (A)
                 (A) (A) (A) (A) (A) (A) (A) (A) (A) (A) (A) (A)
                 (A) (A) (A) (A) (A) (A) (A) (A) (A) (A) (A) (A)
                 (A) (A) (A) (A) (A) (A) (A) (A) (A) (A) (A) (A)
                 (A) (A) (A) (A) (A) (A) (A) (A) (A) (A) (A) (A)
                 (A) (A) (A) (A) (A) (A) (A) (A) (A) (A) (A) (A)
                 (A) (A) (A) (A) (A) (A) (A) (A) (A) (A) (A) (A)
                 (A) (A) (A) (A) (A) (A) (A) (A) (A) (A) (A) (A)
                 (A) (A) (A) (A) (A) (A) (A) (A) (A) (A) (A) (A)
                 (A) (A) (A) (A) (A) (A) (A) (A) (A) (A) (A) (A)
                 (A) (A) (A) (A) (A) (A) (A) (A) (A) (A) (A) (A)
                 (A) (A) (A) (A) (A) (A) (A) (A) (A) (A) (A) (A)
                 (A) (A) (A) (A) (A) (A) (A) (A) (A) (A) (A) (A)
                 (A) (A) (A) (A) (A) (A) (A) (A) (A) (A) (A) (A)
                 (A) (A) (A) (A) (A) (A) (A) (A) (A) (A) (A) (A)
                 (A) (A) (A) (A) (A) (A) (A) (A) (A) (A) (A) (A)
                 (A) (A) (A) (A) (A) (A) (A) (A) (A) (A) (A) (A)
                 (A) (A) (A) (A) (A) (A) (A) (A) (A) (A) (A) (A)
                 (A) (A) (A) (A) (A) (A) (A) (A) (A) (A) (A) (A)
                 (A) (A) (A) (A) (A) (A) (A) (A) (A) (A) (A) (A)
                 (A) (A) (A) (A) (A) (A) (A) (A) (A) (A) (A) (A)
                 (A) (A) (A) (A) (A) (A) (A) (A) (A) (A) (A) (A)
                 (A) (A) (A) (A) (A) (A) (A) (A) (A) (A) (A) (A)
                 (A) (A) (A) (A) (A) (A) (A) (A) (A) (A) (A) (A)
                 (A) (A) (A) (A) (A) (A) (A) (A) (A) (A) (A) (A)
                 (A) (A) (A) (A) (A) (A) (A) (A) (A) (A) (A) (A)
                 (A) (A) (A) (A) (A) (A) (A) (A) (A) (A) (A) (A)
                 (A) (A) (A) (A) (A) (A) (A) (A) (A) (A) (A) (A)
                 (A) (A) (A) (A) (A) (A) (A) (A) (A) (A) (A) (A)
                 (A) (A) (A) (A) (A) (A) (A) (A) (A) (A) (A) (A)
                 (A) (A) (A) (A) (A) (A) (A) (A) (A) (A) (A) (A)
                 (A) (A) (A) (A) (A) (A) (A) (A) (A) (A) (A) (A)
                 (A) (A) (A) (A) (A) (A) (A) (A) (A) (A) (A) (A)
                 (A) (A) (A) (A) (A) (A) (A) (A) (A) (A) (A) (A)
                 (A) (A) (A) (A) (A) (A) (A) (A) (A) (A) (A) (A)
                 (A) (A) (A) (A) (A) (A) (A) (A) (A) (A) (A) (A)
                 (A) (A) (A) (A) (A) (A) (A) (A) (A) (A) (A) (A)
                 (A) (A) (A) (A) (A) (A) (A) (A) (A) (A) (A) (A)
                 (A)
 Beta  Orbitals:
       Occupied  (A) (A) (A) (A) (A) (A) (A) (A) (A) (A) (A) (A)
                 (A) (A) (A) (A) (A) (A) (A) (A) (A) (A) (A) (A)
                 (A) (A) (A) (A) (A) (A) (A) (A) (A) (A) (A) (A)
                 (A) (A) (A) (A) (A) (A) (A) (A) (A) (A) (A) (A)
                 (A) (A) (A) (A) (A) (A) (A) (A) (A) (A) (A) (A)
                 (A) (A) (A) (A) (A) (A) (A) (A) (A) (A) (A) (A)
                 (A) (A) (A) (A) (A) (A) (A) (A) (A) (A) (A) (A)
                 (A) (A) (A) (A) (A) (A) (A) (A) (A) (A) (A) (A)
                 (A) (A) (A) (A) (A) (A) (A) (A) (A) (A) (A) (A)
                 (A) (A) (A) (A) (A) (A) (A) (A) (A) (A) (A) (A)
                 (A) (A) (A) (A) (A) (A) (A) (A) (A) (A)
       Virtual   (A) (A) (A) (A) (A) (A) (A) (A) (A) (A) (A) (A)
                 (A) (A) (A) (A) (A) (A) (A) (A) (A) (A) (A) (A)
                 (A) (A) (A) (A) (A) (A) (A) (A) (A) (A) (A) (A)
                 (A) (A) (A) (A) (A) (A) (A) (A) (A) (A) (A) (A)
                 (A) (A) (A) (A) (A) (A) (A) (A) (A) (A) (A) (A)
                 (A) (A) (A) (A) (A) (A) (A) (A) (A) (A) (A) (A)
                 (A) (A) (A) (A) (A) (A) (A) (A) (A) (A) (A) (A)
                 (A) (A) (A) (A) (A) (A) (A) (A) (A) (A) (A) (A)
                 (A) (A) (A) (A) (A) (A) (A) (A) (A) (A) (A) (A)
                 (A) (A) (A) (A) (A) (A) (A) (A) (A) (A) (A) (A)
                 (A) (A) (A) (A) (A) (A) (A) (A) (A) (A) (A) (A)
                 (A) (A) (A) (A) (A) (A) (A) (A) (A) (A) (A) (A)
                 (A) (A) (A) (A) (A) (A) (A) (A) (A) (A) (A) (A)
[...]
 000352,-0.00000401,0.00000057,-0.00000271,-0.00000089,0.00000140,-0.00
 000096,0.00000181,-0.00000146,0.00000358,-0.00000282,-0.00000072,0.000
 00224,-0.00000029,-0.00000065,0.,-0.00000050,0.00000027,-0.00000021,0.
 00000061,-0.00000001,0.00000063,0.00000057,0.00000112,0.00000119,0.000
 00044,-0.00000073,0.00000055,-0.00000035,0.00000018,-0.00000131,0.0000
 0232,0.00000078,0.00000032,0.00000095,-0.00000692,-0.00000863,-0.00000
 446,0.00000330,-0.00001146,-0.00000368,-0.06616624,-0.19134120,-0.0649
 0179,0.06239446,-0.20034209,-0.06947620,-0.01176821,-0.05477146,-0.029
 37147,-0.03985118,0.03036180,0.01377568,0.04347364,0.02618630,0.011800
 47,0.00637950,-0.05524168,-0.02958663,0.02537628,0.01135391,0.00320432
 ,-0.00105043,0.00040859,0.00103232,0.00108233,-0.01142305,-0.00776419,
 -0.00168589,-0.01126989,-0.00767391,0.00116504,0.00038096,0.00102045,-
 0.02455151,0.01331484,0.00415845,-0.01746683,0.00704369,0.00406417,-0.
 00021524,-0.00030029,-0.00047389,0.00068828,0.00039767,0.00008839,0.01
 820338,0.00599076,0.00356408,-0.00061776,0.00035429,0.00006609,0.00013
 912,-0.00024106,-0.00044036,-0.00025120,0.00005290,0.00041137,0.000256
 95,0.00003671,0.00040344,0.00036178,0.55311236,0.00001326,0.00014517,-
 0.00136944,0.00156479,0.00543992,0.00170705,0.01887902,-0.00031649,0.0
 0434462,0.00218581,0.00086973,-0.07134118,-0.01802868,0.00053187,0.004
 97799,-0.00126842,0.00549908,0.00177716,-0.00003366,-0.00065964,-0.000
 17001,0.00019197,0.00001999,-0.00007387,-0.00021383,0.00000860,-0.0000
 7200,0.00000524,-0.00003630,0.00017986,0.00020455,-0.00000500,-0.00006
 790,-0.00019194,0.00001731,-0.00006002,0.00078020,-0.00003310,0.000138
 99,0.00023358,-0.00249340,-0.00142238,-0.00047781,-0.00242920,-0.00146
 475,-0.00077532,0.00002369,0.00016628,0.00000713,0.00003965,0.00002383
 ,-0.00000207,0.00003704,0.00002351,-0.00000181,0.00001480,-0.00000152,
 0.00000300,0.00000342,-0.00000063,0.00000132,-0.00000131,-0.00000049,-
 0.00000272,-0.00000309,0.00000196,0.00000011,-0.00000227,-0.00000008,0
 .00000162,0.00000262,-0.00000021,-0.00000073,0.00000158,-0.00000087,-0
 .00000165,-0.00000057,0.00000284,-0.00000059,-0.00000019,0.00000021,-0
 .00000181,-0.00000258,0.00000463,0.00000185,0.00000006,0.00000109,-0.0
 0000228,0.00000105,-0.00000168,-0.00000089,0.00000073,-0.00000015,0.00
 000013,-0.00000222,0.00000104,0.00000040,0.00000090,0.00000130,0.00000
 103,-0.00000110,-0.00000047,0.00000004,-0.00000014,-0.00000041,-0.0000
 0083,-0.00000052,0.00000005,0.00000044,-0.00000009,-0.00000082,-0.0000
 0091,-0.00000177,-0.00000091,0.00000047,-0.00000009,-0.00000027,0.0000
 0086,0.00000040,-0.00000098,-0.00000038,-0.00000046,-0.00000066,0.0000
 0049,-0.00000999,-0.00000365,-0.00000263,-0.00001190,-0.00000352,-0.03
 448366,-0.06434371,-0.09236412,0.03249211,-0.06874017,-0.09456455,-0.0
 0646233,-0.02959922,-0.01205727,-0.01963515,0.01335065,0.00999790,0.02
 138496,0.01132744,0.00904747,0.00374007,-0.02985301,-0.01217748,0.0131
 7961,0.00342461,0.00597526,-0.00060116,0.00128172,-0.00168774,0.000455
 76,-0.00774237,0.00006148,-0.00077769,-0.00767058,0.00010392,0.0006509
 9,0.00125500,-0.00167938,-0.01277315,0.00442516,0.00646065,-0.00882282
 ,0.00380492,0.00194177,-0.00011338,-0.00040913,0.00017615,0.00033870,0
 .00006226,0.00022830,0.00919937,0.00326938,0.00168728,-0.00030776,0.00
 004306,0.00021802,0.00007244,-0.00038154,0.00019250,-0.00013397,0.0004
 0393,-0.00056052,0.00013766,0.00039493,-0.00056469,0.00019483,0.179543
 09,0.25376500,0.00006182,-0.00000859,0.00000610,-0.00011635,-0.0001357
 9,-0.00004353,-0.00024972,0.00041326,-0.00010989,-0.00024259,-0.000018
 97,0.00000111,-0.00027709,-0.00037996,0.00012897,-0.00008745,0.0001488
 8,0.00003716,0.00000652,0.00000009,0.00000001,-0.00002105,0.00002108,-
 0.00002046,-0.00001134,0.00000327,-0.00001794,0.00000643,0.00000614,0.
 00000036,-0.00001103,-0.00000483,0.00001690,-0.00002093,-0.00002040,0.
 00002127,-0.00006373,-0.00001804,-0.00000653,0.00006116,0.00004868,0.0
 0001651,0.00005183,-0.00004481,-0.00002267,-0.00006192,0.00001891,0.00
 000521,0.00000875,-0.00000314,-0.00000808,0.00000886,0.00000315,0.0000
 0788,-0.00000764,0.00000392,0.00000642,0.00000055,0.00001238,-0.000016
 59,0.00000016,-0.00001124,0.00000288,-0.00000670,-0.00000716,0.0000021
 8,0.00000034,-0.00000043,-0.00000234,-0.00000011,0.00000648,0.00000098
 ,0.00000111,0.00000545,0.00000156,-0.00000301,-0.00000478,0.00000374,-
 0.00000213,-0.00000066,0.00000203,0.00000427,-0.00001557,0.00001569,-0
 .00000611,0.00000656,-0.00000345,-0.00000202,0.00000957,-0.00000645,0.
 00000018,-0.00000756,0.00000138,0.00000101,0.00000147,0.00000336,-0.00
 000465,0.00000443,-0.00000633,0.00000015,0.00000302,-0.00000080,-0.000
 00241,-0.00000020,-0.00000206,-0.00000128,-0.00000155,0.00000152,0.000
 00113,0.00000098,-0.00000109,0.00000035,-0.00000320,0.00000033,-0.0000
 0136,0.00000108,-0.00000169,0.00000165,-0.00000505,-0.00000091,0.00000
 087,-0.00000078,0.00000081,-0.00000717,0.00000172,-0.00000342,-0.00000
 761,-0.00000121,0.00000389,-0.02196074,0.02724550,0.01370102,-0.027202
 93,-0.02367339,-0.01192984,-0.00545710,-0.00132366,-0.00062683,-0.1747
 0696,0.10269220,0.05060710,-0.18862234,-0.10750094,-0.05312731,-0.0052
 2640,0.00076225,0.00032144,-0.00253816,-0.00035706,-0.00011525,-0.0006
 6333,0.00135804,0.00074658,0.01673461,-0.00983040,-0.00496190,0.016656
 21,0.00421938,0.00220081,-0.00072600,-0.00128253,-0.00071066,-0.003872
 09,0.00105153,0.00043435,-0.00090153,-0.00607481,-0.00306354,0.0001798
 1,0.00003698,0.00002785,0.00070171,-0.00158161,-0.00077867,0.00149784,
 0.00694609,0.00353715,0.00068819,0.00161782,0.00080625,0.00015374,-0.0
 0002889,-0.00002991,0.00069841,-0.00118236,-0.00063927,0.00077574,0.00
 110779,0.00059848,-0.00042356,-0.00158599,-0.00078499,0.72748944,-0.00
 000444,-0.00017209,0.00018086,-0.00023958,0.00008015,-0.00010651,0.000
 02058,0.00021975,0.00014370,-0.00001793,-0.00090865,0.00031077,0.00001
 468,0.00024403,0.00013606,0.00024713,0.00005600,-0.00011565,0.00000031
 ,0.00002493,0.00001163,-0.00000339,0.00000441,0.00000278,0.00000502,-0
 .00000526,0.00000078,-0.00000026,0.00000092,-0.00000440,-0.00000464,-0
 .00000473,-0.00000011,0.00000510,0.00000552,0.00000138,-0.00000706,-0.
 00003636,-0.00004242,0.00006984,0.00009055,-0.00005331,-0.00006920,0.0
 0009785,-0.00005005,0.00000759,-0.00003799,-0.00004297,0.00000099,0.00
 000159,-0.00000056,-0.00000147,0.00000150,-0.00000106,-0.00000008,0.00
 000102,0.00000014,-0.00000049,-0.00000137,0.00000105,0.00000005,0.0000
 0070,-0.00000025,0.00000070,0.00000071,-0.00000066,-0.00000013,0.00000
 015,0.00000011,-0.00000007,-0.00000106,-0.00000031,0.00000001,-0.00000
 066,0.00000029,0.00000016,0.00000062,-0.00000049,0.00000013,0.00000003
 ,-0.00000001,0.00000075,-0.00000014,0.00000011,-0.00000043,0.00000005,
 -0.00000058,-0.00000011,-0.00000018,-0.00000005,0.00000011,-0.00000050
 ,-0.00000005,0.00000012,0.00000011,-0.00000002,0.,0.00000026,-0.000000
 26,-0.00000020,0.00000047,0.00000002,0.00000006,0.,0.00000012,0.000000
 34,0.00000018,-0.00000010,-0.00000020,0.00000013,0.00000024,0.00000017
 ,0.00000070,0.00000016,-0.00000020,0.00000004,-0.00000001,0.00000002,-
 0.00000015,0.00000038,0.00000018,0.00000023,0.00000015,-0.00000009,-0.
 00000034,0.,0.00000050,-0.00000025,-0.00000029,0.04475489,0.02564758,0
 .01081038,-0.04116535,0.02989445,0.01283738,-0.00227602,-0.01074374,-0
 .00752967,0.07507776,-0.22755871,-0.08260958,-0.07991141,-0.21626442,-
 0.07713193,0.00171381,-0.01093095,-0.00761567,0.01845764,0.00590073,0.
 00283266,-0.00050082,0.00042696,0.00009359,0.00531334,-0.05915980,-0.0
 3136579,-0.01092302,-0.05909998,-0.03134178,0.00057472,0.00047565,0.00
 012319,-0.01777215,0.00697598,0.00334534,-0.02444478,0.01351139,0.0049
 8803,0.00031376,0.00007697,0.00032009,0.00181938,0.00052375,0.00163731
 ,0.02533323,0.01157202,0.00405008,-0.00178130,0.00053568,0.00163871,-0
 .00030907,0.00009821,0.00033146,0.00011337,-0.00027751,-0.00037776,-0.
 00018954,-0.00033924,-0.00041142,-0.00157833,-0.04158779,-0.02036530,-
 0.00107970,0.58542583,-0.00000308,-0.00012478,0.00010811,-0.00011809,0
 .00008237,-0.00008743,0.00019870,0.00008165,0.00008837,-0.00000505,0.0
 0011838,-0.00078278,-0.00018205,0.00010504,0.00009032,0.00012338,0.000
 07048,-0.00009189,0.00000034,0.00001933,0.00001494,-0.00000367,-0.0000
 0005,-0.00000339,0.00000053,-0.00000299,0.00000104,-0.00000023,-0.0000
 0144,-0.00000037,-0.00000019,-0.00000292,0.00000074,0.00000439,0.00000
 019,-0.00000402,0.00000287,-0.00001661,-0.00001871,0.00005522,0.000055
 28,-0.00004288,-0.00005464,0.00006001,-0.00004071,-0.00000245,-0.00001
 701,-0.00001877,0.00000145,0.00000237,0.00000073,-0.00000156,0.0000024
 7,0.00000042,0.00000004,0.00000178,0.00000011,0.00000063,0.00000038,0.
 00000003,0.00000020,-0.00000017,0.00000041,0.00000067,-0.00000021,0.00
 000002,0.00000022,0.00000002,0.00000016,0.00000011,0.00000023,0.000000
 60,-0.00000037,0.00000003,-0.00000034,0.00000021,-0.00000017,0.0000004
 3,-0.00000043,0.00000001,-0.00000007,-0.00000088,0.00000073,-0.0000006
 0,-0.00000034,-0.00000052,0.00000032,-0.00000001,-0.00000026,0.0000006
 2,-0.00000009,0.00000074,0.00000040,-0.00000034,-0.00000011,0.,0.00000
 002,-0.00000034,0.00000073,0.00000022,-0.00000046,-0.00000037,0.000000
 44,0.00000004,-0.00000004,-0.00000044,-0.00000025,-0.00000013,-0.00000
 014,0.00000005,-0.00000038,-0.00000019,-0.00000018,-0.00000053,0.00000
 049,-0.00000025,-0.00000001,0.00000024,0.00000026,-0.00000036,0.,-0.00
 000003,-0.00000047,0.00000119,-0.00000022,0.00000023,-0.00000101,-0.00
 000013,0.00000016,0.02251400,0.01049938,0.01036550,-0.02075633,0.01259
 085,0.01136454,-0.00110080,-0.00752300,0.00024102,0.03645434,-0.081791
 81,-0.10096892,-0.03892973,-0.07635819,-0.09835844,0.00079616,-0.00760
 988,0.00020109,0.00919525,0.00308326,0.00101729,-0.00023811,0.00014621
 ,0.00026955,0.00255766,-0.03149319,-0.01128762,-0.00532317,-0.03145119
 ,-0.01127048,0.00027623,0.00016917,0.00028309,-0.00886068,0.00361972,0
 .00127314,-0.01207072,0.00432320,0.00720131,0.00013977,0.00043869,-0.0
 0059794,0.00083812,0.00158537,-0.00185873,0.01250230,0.00337511,0.0067
 4330,-0.00081541,0.00159062,-0.00185889,-0.00013477,0.00044792,-0.0005
 9312,0.00005964,-0.00034008,0.00020313,-0.00009733,-0.00036900,0.00018
 769,-0.00079342,-0.02056106,-0.01083646,-0.00022109,0.22546837,0.23764
 571,0.00001162,-0.00000041,-0.00000012,-0.00000201,0.00001592,0.000005
 05,-0.00002530,0.00000634,-0.00002198,0.00000203,0.00000544,0.00000430
 ,-0.00002593,-0.00000474,0.00002317,-0.00000306,-0.00001567,-0.0000057
 8,0.00002559,-0.00000074,-0.00000064,-0.00001288,0.00000406,-0.0000007
 4,-0.00000144,-0.00000083,-0.00000651,0.00000155,0.00000283,0.00000063
 ,-0.00000139,0.00000008,0.00000567,-0.00001256,-0.00000389,0.00000120,
 -0.00000749,-0.00000510,0.00000271,0.00000519,0.00000063,-0.00001244,0
 .00000524,-0.00000059,0.00001164,-0.00000735,0.00000538,-0.00000272,0.
 00000372,0.00000062,-0.00000490,0.00000368,-0.00000072,0.00000491,0.00
 000136,0.00000162,0.00000240,-0.00000070,0.00000637,-0.00000712,-0.000
 00047,-0.00000555,0.00000134,-0.00000208,-0.00000328,-0.00000035,0.000
 00030,-0.00000025,-0.00000160,-0.00000077,0.00000254,0.00000055,0.0000
 0052,0.00000243,0.00000146,-0.00000132,-0.00000157,0.00000121,-0.00000
 131,-0.00000005,0.00000154,0.00000149,-0.00000811,0.00000723,-0.000002
 07,0.00000354,-0.00000051,-0.00000163,0.00000475,-0.00000307,-0.000000
 67,-0.00000370,0.00000053,0.00000067,0.00000093,0.00000216,-0.00000212
 ,0.00000185,-0.00000249,0.00000071,0.00000124,-0.00000028,-0.00000135,
 -0.00000050,-0.00000146,-0.00000059,-0.00000118,0.00000110,0.00000082,
 0.00000073,-0.00000037,0.00000086,-0.00000095,0.00000008,-0.00000075,0
 .00000083,-0.00000132,0.00000083,-0.00000265,-0.00000100,0.00000081,-0
 .00000053,0.00000027,-0.00000235,0.00000039,-0.00000195,-0.00000260,-0
 .00000008,0.00000217,0.00126261,0.00247535,0.00121121,0.00099051,-0.00
 282774,-0.00138888,-0.00079817,-0.00059570,-0.00029934,-0.01239186,-0.
 00116425,-0.00055898,-0.01416796,0.00220844,0.00105704,-0.00084806,0.0
 0066966,0.00033301,0.00024049,0.00006302,0.00001933,-0.00010264,0.0002
 3179,0.00012856,0.00070637,-0.00183700,-0.00092182,0.00071641,0.001870
 63,0.00094100,-0.00013535,-0.00024905,-0.00013915,0.00022323,-0.000066
 15,-0.00002006,0.00001726,0.00029815,0.00015704,0.00005168,0.00003476,
 0.00001572,0.00060348,0.00073241,0.00035954,0.00002809,-0.00028842,-0.
 00015139,0.00060516,-0.00079229,-0.00039152,0.00005359,-0.00003947,-0.
 00001787,-0.00001000,0.00005918,0.00003158,-0.00001364,-0.00005879,-0.
 00003162,0.00037136,-0.00003855,-0.00001878,-0.33227631,0.00843504,0.0
 0399176,0.35492694,-0.00000043,-0.00000771,0.00001278,-0.00001215,-0.0
 0001649,-0.00000857,-0.00005753,0.00000449,-0.00002062,0.00000529,-0.0
 0009169,0.00057545,0.00005867,0.00000131,-0.00002371,0.00001113,-0.000
 01630,-0.00000857,-0.00000068,0.00000355,0.00000097,-0.00000147,0.0000
 0066,-0.00000067,0.00000128,-0.00000001,0.00000112,-0.00000011,-0.0000
 0023,-0.00000114,-0.00000114,0.00000004,0.00000078,0.00000235,0.000000
 79,-0.00000082,-0.00000541,-0.00000215,-0.00000346,0.00000122,0.000011
 81,-0.00000754,-0.00000102,0.00001191,-0.00000823,0.00000561,-0.000002
 81,-0.00000346,0.,-0.00000081,0.00000038,-0.00000028,-0.00000071,0.000
 00012,-0.00000005,0.00000011,0.00000003,0.00000012,-0.00000008,0.00000
 019,0.00000006,0.00000010,0.00000011,0.00000039,-0.00000002,-0.0000001
 4,0.00000001,0.00000002,0.00000012,-0.00000004,0.00000008,0.00000020,-
 0.00000007,-0.00000006,-0.00000010,0.00000012,-0.00000001,0.00000005,-
 0.00000009,0.00000002,-0.00000005,-0.00000023,0.00000041,-0.00000034,-
 0.00000017,-0.00000031,0.00000001,0.00000005,-0.00000017,0.00000026,0.
 00000005,0.00000039,0.00000012,-0.00000007,-0.00000003,-0.00000002,0.0
 0000004,-0.00000017,0.00000024,0.,-0.00000018,-0.00000010,0.00000014,0
 .00000004,0.00000002,-0.00000015,-0.00000005,-0.00000002,-0.00000008,-
 0.00000001,-0.00000009,-0.00000001,-0.00000002,-0.00000017,0.00000018,
 -0.00000008,0.00000006,0.00000001,0.00000014,-0.00000007,0.,0.,-0.0000
 0013,0.00000038,-0.00000004,0.00000015,-0.00000023,0.,0.00000004,0.000
 79119,-0.00265463,-0.00426926,-0.00114123,-0.00243258,-0.00415982,0.00
 132833,0.00030611,0.00007044,0.02541994,0.00284452,-0.00011278,-0.0243
 7637,0.00428314,0.00056593,-0.00125478,0.00034704,0.00008842,0.0001694
 1,0.00010777,0.00015070,0.00018472,-0.00027848,-0.00029828,0.00176784,
 0.00029766,0.00200520,-0.00173464,0.00029293,0.00199744,-0.00020249,-0
 .00025177,-0.00028421,-0.00017210,0.00012234,0.00015697,-0.00043350,0.
 00012677,0.00013300,-0.00006330,-0.00000882,-0.00002546,-0.00082506,-0
 .00025618,-0.00022845,0.00044334,0.00011787,0.00012975,0.00076503,-0.0
 0025746,-0.00023248,0.00005869,-0.00001030,-0.00002622,-0.00001372,0.0
 0004538,-0.00010602,0.00001426,0.00004817,-0.00010450,-0.00003995,-0.0
 0086930,-0.00012734,0.00843712,-0.05476592,-0.01027323,-0.00912845,0.0
 5295000,-0.00000032,0.00000427,-0.00002125,0.00002792,0.00003755,-0.00
 001085,0.00014919,-0.00001596,0.00006215,0.00000453,0.00057485,-0.0009
 2474,-0.00014733,-0.00000677,0.00006573,-0.00002581,0.00003973,-0.0000
 0994,-0.00000041,-0.00000093,-0.00000058,0.00000272,0.00000004,0.00000
 043,-0.00000180,-0.00000003,-0.00000065,0.00000003,0.00000025,0.000001
 39,0.00000175,-0.00000012,-0.00000089,-0.00000238,0.00000032,0.0000004
 4,0.00001475,0.00000113,0.00000119,0.00000597,-0.00001221,-0.00000513,
 -0.00000700,-0.00001179,-0.00000530,-0.00001439,0.00000186,0.00000171,
 -0.00000056,0.00000002,0.00000015,0.00000046,-0.00000006,-0.00000001,-
 0.00000008,-0.00000041,0.00000005,-0.00000039,-0.00000058,0.00000035,-
 0.00000007,0.00000034,-0.00000028,-0.00000008,0.00000027,-0.00000020,-
 0.00000016,0.,0.,-0.00000007,-0.00000036,-0.00000036,0.00000018,-0.000
 00021,0.00000020,-0.00000006,0.00000025,-0.00000032,0.00000026,0.,0.,0
 .00000056,-0.00000028,0.00000024,0.00000007,0.00000017,-0.00000030,-0.
 00000002,0.00000002,-0.00000028,0.00000008,-0.00000038,-0.00000021,0.0
 0000020,0.00000005,-0.00000002,0.00000004,0.00000019,-0.00000036,-0.00
 000016,0.00000030,0.00000018,-0.00000019,-0.00000002,0.00000007,0.0000
 0028,0.00000018,0.00000003,0.,0.,0.00000025,0.00000012,0.00000025,0.00
 000027,-0.00000027,0.00000012,0.00000003,-0.00000012,-0.00000011,0.000
 00026,0.00000003,0.00000007,0.00000026,-0.00000042,-0.00000011,-0.0000
 0012,0.00000049,-0.00000014,-0.00000022,0.00027707,-0.00430878,0.00390
 978,-0.00045938,-0.00420617,0.00395956,0.00065270,0.00007950,0.0001552
 8,0.01264169,-0.00026858,0.00304864,-0.01214871,0.00043664,0.00337977,
 -0.00061819,0.00009974,0.00016490,0.00007359,0.00013944,-0.00011864,0.
 00005828,-0.00028474,0.00012822,0.00083270,0.00202021,-0.00282113,-0.0
 0081013,0.00201811,-0.00282371,-0.00006819,-0.00027374,0.00013417,-0.0
 0007491,0.00014586,-0.00011597,-0.00021541,0.00012516,-0.00007223,-0.0
 0003292,-0.00002822,0.00003403,-0.00038897,-0.00024414,0.00012602,0.00
 022020,0.00012028,-0.00007393,0.00035554,-0.00023993,0.00012627,0.0000
 3058,-0.00002908,0.00003362,-0.00000195,-0.00011203,0.00020821,0.00000
 160,-0.00011027,0.00020912,-0.00001659,-0.00003778,-0.00065703,0.00399
 419,-0.01009831,-0.03858035,-0.00431036,0.01444505,0.03049203\\-0.0000
 1213,-0.00000702,0.00000084,0.00000298,0.00000578,0.00000053,-0.000005
 51,-0.00000027,-0.00000019,0.00001082,-0.00000084,-0.00000164,-0.00000
 375,0.00000352,0.00000189,0.00000469,-0.00000123,0.00000015,0.00000754
 ,0.00000333,-0.00000415,-0.00000492,-0.00000337,-0.00000220,0.00000180
 ,-0.00000305,0.00000318,0.00033287,-0.00764178,0.00044083,-0.00032482,
 0.00702491,0.00104478,0.00000221,0.00000357,0.00000459,0.00000146,-0.0
 0000116,0.00000135,-0.00000126,0.00000019,0.00000117,-0.00000044,0.000
 00001,-0.00000087,0.00000302,0.00000127,0.00000040,-0.00000031,0.00000
 075,0.00000082,-0.00000474,-0.00000281,-0.00000102,-0.00430862,-0.0033
 0685,-0.00687468,0.00668954,0.00236233,0.01052773,-0.00455470,-0.00033
 456,-0.00505799,0.00000165,-0.00001024,0.00000346,-0.00000277,-0.00000
 616,-0.00000116,0.00000548,0.00000261,-0.00000587,-0.00000159,0.000001
 44,-0.00000067,-0.00000284,0.00000651,0.00000033,0.00000094,-0.0000002
 5,0.00000177,0.00671311,0.00097907,-0.00514386,0.00000579,0.00000389,-
 0.00000011,-0.00454262,0.00092070,0.00506324,0.00000337,-0.00000054,0.
 00000333,-0.00000799,0.00001185,-0.00000682,-0.00000083,-0.00001126,0.
 00000248,-0.00000049,-0.00000121,-0.00000032,0.00000144,-0.00000024,-0
 .00000116,-0.00000079,0.00000104,0.00000258,-0.00000191,-0.00000037,-0
 .00000105,-0.00000009,0.00000068,0.00000155,-0.00000150,-0.00000066,-0
 .00000174,-0.00000082,-0.00000180,-0.00000047,-0.00000182,0.00000067,0
 .00000043,0.00000164,0.00000185,0.00000152,0.00000057,0.00000037,-0.00
 000040,0.00000015,0.00000190,-0.00000195,0.00000114,-0.00000200,0.0000
 0167,0.00000067,-0.00000144,-0.00000139,-0.00000122,0.00000027,-0.0000
 0023,-0.00000056,-0.00000039,-0.00000035,0.00000036,-0.00000044,-0.000
 00088,0.00000067,0.00000039,-0.00000045,-0.00000047,0.00000032,0.00000
 015,0.00000016,0.00000031,-0.00000019,0.00000008,-0.00000034,0.0000002
 4,0.00000123,-0.00000086,-0.00000112,0.00000066,-0.00000051,0.00000032
 ,-0.00000008,0.00000054,0.00000007,-0.00000027,-0.00000006,-0.00000027
 ,0.00000003,-0.00000005,-0.00000039,-0.00000033,-0.00000047,0.00000020
 ,0.00000004,0.00000010,0.00000020,-0.00000014,-0.00000004,0.00000031,0
 .00000001,0.00000028,-0.00000068,0.00000002,-0.00000012,0.00000039,-0.
 00000664,0.00000162,0.00000168,0.00000078,0.00000009,0.00000026,0.0000
 0002,0.00000018,-0.00000019\\\@
 The archive entry for this job was punched.


 IT'S WHAT A FELLER THINKS HE KNOWS THAT HURTS HIM...
                    ------
           KIN HUBBARD
 Job cpu time:       0 days 20 hours 38 minutes 23.5 seconds.
 Elapsed time:       0 days  0 hours 51 minutes 40.5 seconds.
 File lengths (MBytes):  RWF=   6471 Int=      0 D2E=      0 Chk=     61 Scr=      2
 Normal termination of Gaussian 16 at Fri Aug 15 22:07:03 2025.
