 Entering Gaussian System, Link 0=g16
 Input=molecule.gjf
 Output=molecule.log
 Initial command:
 /share/apps/softwares/gaussian/16/g16/l1.exe "/share/home/kae/gaussian/corrtectedOI/tddft/ttmalt_251006_b3lyp_nstates20/Gau-21448.inp" -scrdir="/share/home/kae/gaussian/corrtectedOI/tddft/ttmalt_251006_b3lyp_nstates20/"
 Entering Link 1 = /share/apps/softwares/gaussian/16/g16/l1.exe PID=     21450.
  
 Copyright (c) 1988-2019, Gaussian, Inc.  All Rights Reserved.
  
 This is part of the Gaussian(R) 16 program.  It is based on
 the Gaussian(R) 09 system (copyright 2009, Gaussian, Inc.),
 the Gaussian(R) 03 system (copyright 2003, Gaussian, Inc.),
 the Gaussian(R) 98 system (copyright 1998, Gaussian, Inc.),
 the Gaussian(R) 94 system (copyright 1995, Gaussian, Inc.),
 the Gaussian 92(TM) system (copyright 1992, Gaussian, Inc.),
 the Gaussian 90(TM) system (copyright 1990, Gaussian, Inc.),
 the Gaussian 88(TM) system (copyright 1988, Gaussian, Inc.),
 the Gaussian 86(TM) system (copyright 1986, Carnegie Mellon
 University), and the Gaussian 82(TM) system (copyright 1983,
 Carnegie Mellon University). Gaussian is a federally registered
 trademark of Gaussian, Inc.
  
 This software contains proprietary and confidential information,
 including trade secrets, belonging to Gaussian, Inc.
  
 This software is provided under written license and may be
 used, copied, transmitted, or stored only in accord with that
 written license.
  
 The following legend is applicable only to US Government
 contracts under FAR:
  
                    RESTRICTED RIGHTS LEGEND
  
 Use, reproduction and disclosure by the US Government is
 subject to restrictions as set forth in subparagraphs (a)
 and (c) of the Commercial Computer Software - Restricted
 Rights clause in FAR 52.227-19.
  
 Gaussian, Inc.
 340 Quinnipiac St., Bldg. 40, Wallingford CT 06492
  
  
 ---------------------------------------------------------------
 Warning -- This program may not be used in any manner that
 competes with the business of Gaussian, Inc. or will provide
 assistance to any competitor of Gaussian, Inc.  The licensee
 of this program is prohibited from giving any competitor of
 Gaussian, Inc. access to this program.  By using this program,
 the user acknowledges that Gaussian, Inc. is engaged in the
 business of creating and licensing software in the field of
 computational chemistry and represents and warrants to the
 licensee that it is not a competitor of Gaussian, Inc. and that
 it will not use this program in any manner prohibited above.
 ---------------------------------------------------------------
  

 Cite this work as:
 Gaussian 16, Revision C.01,
 M. J. Frisch, G. W. Trucks, H. B. Schlegel, G. E. Scuseria, 
 M. A. Robb, J. R. Cheeseman, G. Scalmani, V. Barone, 
 G. A. Petersson, H. Nakatsuji, X. Li, M. Caricato, A. V. Marenich, 
 J. Bloino, B. G. Janesko, R. Gomperts, B. Mennucci, H. P. Hratchian, 
 J. V. Ortiz, A. F. Izmaylov, J. L. Sonnenberg, D. Williams-Young, 
 F. Ding, F. Lipparini, F. Egidi, J. Goings, B. Peng, A. Petrone, 
 T. Henderson, D. Ranasinghe, V. G. Zakrzewski, J. Gao, N. Rega, 
 G. Zheng, W. Liang, M. Hada, M. Ehara, K. Toyota, R. Fukuda, 
 J. Hasegawa, M. Ishida, T. Nakajima, Y. Honda, O. Kitao, H. Nakai, 
 T. Vreven, K. Throssell, J. A. Montgomery, Jr., J. E. Peralta, 
 F. Ogliaro, M. J. Bearpark, J. J. Heyd, E. N. Brothers, K. N. Kudin, 
 V. N. Staroverov, T. A. Keith, R. Kobayashi, J. Normand, 
 K. Raghavachari, A. P. Rendell, J. C. Burant, S. S. Iyengar, 
 J. Tomasi, M. Cossi, J. M. Millam, M. Klene, C. Adamo, R. Cammi, 
 J. W. Ochterski, R. L. Martin, K. Morokuma, O. Farkas, 
 J. B. Foresman, and D. J. Fox, Gaussian, Inc., Wallingford CT, 2019.
 
 ******************************************
 Gaussian 16:  ES64L-G16RevC.01  3-Jul-2019
                 6-Oct-2025 
 ******************************************
 %mem=56GB
 %nprocshared=24
 Will use up to   24 processors via shared memory.
 %chk=molecule.chk
 --------------------------------------------
 #p TD(nstates=20) Ub3lyp/6-31g(d,p) em=gd3bj
 --------------------------------------------
 1/38=1,172=1/1;
 2/12=2,17=6,18=5,40=1/2;
 3/5=1,6=6,7=101,11=2,25=1,30=1,74=-5,116=2,124=41/1,2,3,8;
 4//1;
 5/5=2,38=5/2;
 8/6=1,10=2,108=20/1;
 9/41=20,42=1,70=2/14;
 6/7=2,8=2,9=2,10=2/1;
 99/5=1,9=1/99;
 Leave Link    1 at Mon Oct  6 16:01:38 2025, MaxMem=  7516192768 cpu:               2.1 elap:               0.3
 (Enter /share/apps/softwares/gaussian/16/g16/l101.exe)
 --------
 molecule
 --------
 Symbolic Z-matrix:
 Charge =  0 Multiplicity = 2
 C                    -2.56038   0.00005   0.00004 
 C                    -3.28115   1.08451  -0.52446 
 C                    -4.67191   1.08348  -0.52367 
 C                    -5.39097   0.00003   0.00001 
 C                    -4.67191  -1.08341   0.52371 
 C                    -3.28114  -1.08442   0.52452 
 C                    -1.08298   0.00006   0.00005 
 C                    -0.36159   0.58984  -1.04643 
 C                     1.02452   0.58578  -1.03939 
 C                     1.78856   0.00005   0.00005 
 C                     1.02451  -0.58568   1.03948 
 C                    -0.36159  -0.58973   1.04653 
 H                    -2.74723   1.94607  -0.9123 
 H                    -5.21484   1.93247  -0.92645 
 H                    -5.21482  -1.93241   0.92648 
 H                    -2.74722  -1.94597   0.91237 
 H                    -0.88067   1.0131   -1.89704 
 H                    -0.88067  -1.01299   1.89714 
 C                     3.25041  -0.00002   0.00003 
 C                     3.98509   1.23276  -0.29824 
 C                     5.05403   1.27475  -1.22531 
 C                     3.67665   2.46709   0.32307 
 C                     5.76175   2.43511  -1.51438 
 C                     4.36261   3.64442   0.0508 
 C                     5.40491   3.61493  -0.86986 
 H                     6.56047   2.41987  -2.24388 
 C                     3.98509  -1.23279   0.29823 
 C                     3.67647  -2.46717  -0.32289 
 C                     5.05422  -1.27474   1.2251 
 C                     4.36245  -3.6445   -0.05065 
 C                     5.76196  -2.4351    1.51411 
 C                     5.40495  -3.61496   0.86978 
 H                     4.10013  -4.56002  -0.56384 
 H                     6.56083  -2.41982   2.24344 
 Cl                    6.28163   5.08632  -1.22293 
 Cl                    5.48939  -0.1462   -2.15267 
 Cl                    6.2817   -5.08634   1.2228 
 Cl                    2.44799  -2.55985  -1.56809 
 Cl                    5.48981   0.14626   2.15229 
 Cl                    1.81245  -1.24832   2.46114 
 Cl                    1.81244   1.24837  -2.46108 
 C                    -7.58198  -0.87656  -0.85765 
 C                    -7.58202   0.87657   0.85763 
 C                    -6.91876  -1.76098  -1.76643 
 C                    -9.02608  -0.87657  -0.84788 
 C                    -9.02612   0.87655   0.84782 
 C                    -6.91884   1.76101   1.76642 
 C                    -7.62812  -2.59987  -2.58426 
 H                    -5.83607  -1.75461  -1.80427 
 C                    -9.72648  -1.77015  -1.7151 
 C                    -9.72655   1.77011   1.71503 
 H                    -5.83615   1.75466   1.80429 
 C                    -7.62823   2.59988   2.58424 
 C                    -9.05136  -2.61135  -2.55658 
 H                    -7.10233  -3.26082  -3.26641 
 H                    -10.81259  -1.76256  -1.69177 
 C                    -9.05147   2.61133   2.55653 
 H                    -10.81266   1.7625    1.69168 
 H                    -7.10248   3.26084   3.2664 
 H                    -9.59564  -3.28497  -3.21105 
 H                    -9.59579   3.28494   3.21099 
 C                    -6.88022   0.00001  0. 
 C                    -9.70735  -0.00002  -0.00003 
 H                    -10.7944  -0.00003  -0.00005 
 Cl                    2.44847   2.55966   1.56858 
 H                     4.10045   4.55991   0.56414 
 
 ITRead=  0  0  0  0  0  0  0  0  0  0  0  0  0  0  0  0  0  0  0  0
 ITRead=  0  0  0  0  0  0  0  0  0  0  0  0  0  0  0  0  0  0  0  0
 ITRead=  0  0  0  0  0  0  0  0  0  0  0  0  0  0  0  0  0  0  0  0
 ITRead=  0  0  0  0  0  0
 MicOpt= -1 -1 -1 -1 -1 -1 -1 -1 -1 -1 -1 -1 -1 -1 -1 -1 -1 -1 -1 -1
 MicOpt= -1 -1 -1 -1 -1 -1 -1 -1 -1 -1 -1 -1 -1 -1 -1 -1 -1 -1 -1 -1
 MicOpt= -1 -1 -1 -1 -1 -1 -1 -1 -1 -1 -1 -1 -1 -1 -1 -1 -1 -1 -1 -1
 MicOpt= -1 -1 -1 -1 -1 -1
 NAtoms=     66 NQM=       66 NQMF=       0 NMMI=      0 NMMIF=      0
                NMic=       0 NMicF=      0.
                    Isotopes and Nuclear Properties:
 (Nuclear quadrupole moments (NQMom) in fm**2, nuclear magnetic moments (NMagM)
  in nuclear magnetons)

  Atom         1           2           3           4           5           6           7           8           9          10
 IAtWgt=          12          12          12          12          12          12          12          12          12          12
 AtmWgt=  12.0000000  12.0000000  12.0000000  12.0000000  12.0000000  12.0000000  12.0000000  12.0000000  12.0000000  12.0000000
 NucSpn=           0           0           0           0           0           0           0           0           0           0
 AtZEff=  -0.0000000  -0.0000000  -0.0000000  -0.0000000  -0.0000000  -0.0000000  -0.0000000  -0.0000000  -0.0000000  -0.0000000
 NQMom=    0.0000000   0.0000000   0.0000000   0.0000000   0.0000000   0.0000000   0.0000000   0.0000000   0.0000000   0.0000000
 NMagM=    0.0000000   0.0000000   0.0000000   0.0000000   0.0000000   0.0000000   0.0000000   0.0000000   0.0000000   0.0000000
 AtZNuc=   6.0000000   6.0000000   6.0000000   6.0000000   6.0000000   6.0000000   6.0000000   6.0000000   6.0000000   6.0000000

  Atom        11          12          13          14          15          16          17          18          19          20
 IAtWgt=          12          12           1           1           1           1           1           1          12          12
 AtmWgt=  12.0000000  12.0000000   1.0078250   1.0078250   1.0078250   1.0078250   1.0078250   1.0078250  12.0000000  12.0000000
 NucSpn=           0           0           1           1           1           1           1           1           0           0
 AtZEff=  -0.0000000  -0.0000000  -0.0000000  -0.0000000  -0.0000000  -0.0000000  -0.0000000  -0.0000000  -0.0000000  -0.0000000
 NQMom=    0.0000000   0.0000000   0.0000000   0.0000000   0.0000000   0.0000000   0.0000000   0.0000000   0.0000000   0.0000000
 NMagM=    0.0000000   0.0000000   2.7928460   2.7928460   2.7928460   2.7928460   2.7928460   2.7928460   0.0000000   0.0000000
 AtZNuc=   6.0000000   6.0000000   1.0000000   1.0000000   1.0000000   1.0000000   1.0000000   1.0000000   6.0000000   6.0000000

  Atom        21          22          23          24          25          26          27          28          29          30
 IAtWgt=          12          12          12          12          12           1          12          12          12          12
 AtmWgt=  12.0000000  12.0000000  12.0000000  12.0000000  12.0000000   1.0078250  12.0000000  12.0000000  12.0000000  12.0000000
 NucSpn=           0           0           0           0           0           1           0           0           0           0
 AtZEff=  -0.0000000  -0.0000000  -0.0000000  -0.0000000  -0.0000000  -0.0000000  -0.0000000  -0.0000000  -0.0000000  -0.0000000
 NQMom=    0.0000000   0.0000000   0.0000000   0.0000000   0.0000000   0.0000000   0.0000000   0.0000000   0.0000000   0.0000000
 NMagM=    0.0000000   0.0000000   0.0000000   0.0000000   0.0000000   2.7928460   0.0000000   0.0000000   0.0000000   0.0000000
 AtZNuc=   6.0000000   6.0000000   6.0000000   6.0000000   6.0000000   1.0000000   6.0000000   6.0000000   6.0000000   6.0000000

  Atom        31          32          33          34          35          36          37          38          39          40
 IAtWgt=          12          12           1           1          35          35          35          35          35          35
 AtmWgt=  12.0000000  12.0000000   1.0078250   1.0078250  34.9688527  34.9688527  34.9688527  34.9688527  34.9688527  34.9688527
 NucSpn=           0           0           1           1           3           3           3           3           3           3
 AtZEff=  -0.0000000  -0.0000000  -0.0000000  -0.0000000  -0.0000000  -0.0000000  -0.0000000  -0.0000000  -0.0000000  -0.0000000
 NQMom=    0.0000000   0.0000000   0.0000000   0.0000000  -8.1650000  -8.1650000  -8.1650000  -8.1650000  -8.1650000  -8.1650000
 NMagM=    0.0000000   0.0000000   2.7928460   2.7928460   0.8218740   0.8218740   0.8218740   0.8218740   0.8218740   0.8218740
 AtZNuc=   6.0000000   6.0000000   1.0000000   1.0000000  17.0000000  17.0000000  17.0000000  17.0000000  17.0000000  17.0000000

  Atom        41          42          43          44          45          46          47          48          49          50
 IAtWgt=          35          12          12          12          12          12          12          12           1          12
 AtmWgt=  34.9688527  12.0000000  12.0000000  12.0000000  12.0000000  12.0000000  12.0000000  12.0000000   1.0078250  12.0000000
 NucSpn=           3           0           0           0           0           0           0           0           1           0
 AtZEff=  -0.0000000  -0.0000000  -0.0000000  -0.0000000  -0.0000000  -0.0000000  -0.0000000  -0.0000000  -0.0000000  -0.0000000
 NQMom=   -8.1650000   0.0000000   0.0000000   0.0000000   0.0000000   0.0000000   0.0000000   0.0000000   0.0000000   0.0000000
 NMagM=    0.8218740   0.0000000   0.0000000   0.0000000   0.0000000   0.0000000   0.0000000   0.0000000   2.7928460   0.0000000
 AtZNuc=  17.0000000   6.0000000   6.0000000   6.0000000   6.0000000   6.0000000   6.0000000   6.0000000   1.0000000   6.0000000

  Atom        51          52          53          54          55          56          57          58          59          60
 IAtWgt=          12           1          12          12           1           1          12           1           1           1
 AtmWgt=  12.0000000   1.0078250  12.0000000  12.0000000   1.0078250   1.0078250  12.0000000   1.0078250   1.0078250   1.0078250
 NucSpn=           0           1           0           0           1           1           0           1           1           1
 AtZEff=  -0.0000000  -0.0000000  -0.0000000  -0.0000000  -0.0000000  -0.0000000  -0.0000000  -0.0000000  -0.0000000  -0.0000000
 NQMom=    0.0000000   0.0000000   0.0000000   0.0000000   0.0000000   0.0000000   0.0000000   0.0000000   0.0000000   0.0000000
 NMagM=    0.0000000   2.7928460   0.0000000   0.0000000   2.7928460   2.7928460   0.0000000   2.7928460   2.7928460   2.7928460
 AtZNuc=   6.0000000   1.0000000   6.0000000   6.0000000   1.0000000   1.0000000   6.0000000   1.0000000   1.0000000   1.0000000

  Atom        61          62          63          64          65          66
 IAtWgt=           1          12          12           1          35           1
 AtmWgt=   1.0078250  12.0000000  12.0000000   1.0078250  34.9688527   1.0078250
 NucSpn=           1           0           0           1           3           1
 AtZEff=  -0.0000000  -0.0000000  -0.0000000  -0.0000000  -0.0000000  -0.0000000
 NQMom=    0.0000000   0.0000000   0.0000000   0.0000000  -8.1650000   0.0000000
 NMagM=    2.7928460   0.0000000   0.0000000   2.7928460   0.8218740   2.7928460
 AtZNuc=   1.0000000   6.0000000   6.0000000   1.0000000  17.0000000   1.0000000
 Leave Link  101 at Mon Oct  6 16:01:39 2025, MaxMem=  7516192768 cpu:               3.5 elap:               0.3
 (Enter /share/apps/softwares/gaussian/16/g16/l202.exe)
 Stoichiometry    C39H19Cl8(2)
 Framework group  C1[X(C39H19Cl8)]
 Deg. of freedom   192
 Full point group                 C1      NOp   1
 Largest Abelian subgroup         C1      NOp   1
 Largest concise Abelian subgroup C1      NOp   1
                         Standard orientation:                         
 ---------------------------------------------------------------------
 Center     Atomic      Atomic             Coordinates (Angstroms)
 Number     Number       Type             X           Y           Z
 ---------------------------------------------------------------------
      1          6           0       -2.560382   -0.000050   -0.000040
      2          6           0       -3.281146   -1.084511    0.524456
      3          6           0       -4.671914   -1.083479    0.523672
      4          6           0       -5.390973   -0.000027   -0.000014
      5          6           0       -4.671906    1.083413   -0.523714
      6          6           0       -3.281138    1.084422   -0.524523
      7          6           0       -1.082983   -0.000057   -0.000048
      8          6           0       -0.361588   -0.589841    1.046430
      9          6           0        1.024515   -0.585781    1.039386
     10          6           0        1.788555   -0.000045   -0.000045
     11          6           0        1.024507    0.585676   -1.039481
     12          6           0       -0.361593    0.589727   -1.046530
     13          1           0       -2.747230   -1.946068    0.912298
     14          1           0       -5.214836   -1.932467    0.926452
     15          1           0       -5.214822    1.932410   -0.926484
     16          1           0       -2.747216    1.945972   -0.912374
     17          1           0       -0.880667   -1.013098    1.897041
     18          1           0       -0.880674    1.012988   -1.897137
     19          6           0        3.250407    0.000016   -0.000026
     20          6           0        3.985089   -1.232764    0.298243
     21          6           0        5.054030   -1.274749    1.225311
     22          6           0        3.676649   -2.467090   -0.323072
     23          6           0        5.761746   -2.435113    1.514380
     24          6           0        4.362615   -3.644424   -0.050801
     25          6           0        5.404907   -3.614929    0.869861
     26          1           0        6.560470   -2.419872    2.243877
     27          6           0        3.985085    1.232793   -0.298230
     28          6           0        3.676467    2.467169    0.322890
     29          6           0        5.054217    1.274738   -1.225096
     30          6           0        4.362450    3.644501    0.050653
     31          6           0        5.761959    2.435096   -1.514112
     32          6           0        5.404949    3.614962   -0.869777
     33          1           0        4.100133    4.560022    0.563842
     34          1           0        6.560834    2.419815   -2.243443
     35         17           0        6.281629   -5.086318    1.222932
     36         17           0        5.489391    0.146199    2.152675
     37         17           0        6.281702    5.086343   -1.222796
     38         17           0        2.447992    2.559849    1.568092
     39         17           0        5.489809   -0.146257   -2.152286
     40         17           0        1.812445    1.248324   -2.461140
     41         17           0        1.812439   -1.248365    2.461083
     42          6           0       -7.581984    0.876564    0.857650
     43          6           0       -7.582022   -0.876574   -0.857629
     44          6           0       -6.918760    1.760980    1.766425
     45          6           0       -9.026078    0.876570    0.847875
     46          6           0       -9.026115   -0.876549   -0.847822
     47          6           0       -6.918837   -1.761005   -1.766418
     48          6           0       -7.628116    2.599867    2.584258
     49          1           0       -5.836071    1.754612    1.804272
     50          6           0       -9.726476    1.770145    1.715100
     51          6           0       -9.726552   -1.770108   -1.715031
     52          1           0       -5.836148   -1.754660   -1.804289
     53          6           0       -7.628229   -2.599876   -2.584236
     54          6           0       -9.051360    2.611354    2.556581
     55          1           0       -7.102333    3.260816    3.266411
     56          1           0      -10.812589    1.762559    1.691771
     57          6           0       -9.051473   -2.611331   -2.556528
     58          1           0      -10.812664   -1.762499   -1.691678
     59          1           0       -7.102475   -3.260836   -3.266400
     60          1           0       -9.595644    3.284973    3.211054
     61          1           0       -9.595786   -3.284939   -3.210989
     62          6           0       -6.880216   -0.000012    0.000003
     63          6           0       -9.707346    0.000018    0.000034
     64          1           0      -10.794401    0.000030    0.000046
     65         17           0        2.448472   -2.559660   -1.568579
     66          1           0        4.100448   -4.559909   -0.564138
 ---------------------------------------------------------------------
 Rotational constants (GHZ):           0.0861909           0.0204723           0.0187198
 Leave Link  202 at Mon Oct  6 16:01:40 2025, MaxMem=  7516192768 cpu:               1.6 elap:               0.2
 (Enter /share/apps/softwares/gaussian/16/g16/l301.exe)
 Standard basis: 6-31G(d,p) (6D, 7F)
 Ernie: Thresh=  0.10000D-02 Tol=  0.10000D-05 Strict=F.
 There are   832 symmetry adapted cartesian basis functions of A   symmetry.
 There are   832 symmetry adapted basis functions of A   symmetry.
   832 basis functions,  1641 primitive gaussians,   832 cartesian basis functions
   195 alpha electrons      194 beta electrons
       nuclear repulsion energy      7137.8219286378 Hartrees.
 IExCor=  402 DFT=T Ex+Corr=B3LYP ExCW=0 ScaHFX=  0.200000
 ScaDFX=  0.800000  0.720000  1.000000  0.810000 ScalE2=  1.000000  1.000000
 IRadAn=      5 IRanWt=     -1 IRanGd=            0 ICorTp=0 IEmpDi=141
 NAtoms=   66 NActive=   66 NUniq=   66 SFac= 1.00D+00 NAtFMM=   60 NAOKFM=T Big=T
 Integral buffers will be    131072 words long.
 Raffenetti 2 integral format.
 Two-electron integral symmetry is turned on.
 R6Disp:  Grimme-D3(BJ) Dispersion energy=       -0.2262278911 Hartrees.
 Nuclear repulsion after empirical dispersion term =     7137.5957007467 Hartrees.
 Leave Link  301 at Mon Oct  6 16:01:41 2025, MaxMem=  7516192768 cpu:               3.2 elap:               0.3
 (Enter /share/apps/softwares/gaussian/16/g16/l302.exe)
 NPDir=0 NMtPBC=     1 NCelOv=     1 NCel=       1 NClECP=     1 NCelD=      1
         NCelK=      1 NCelE2=     1 NClLst=     1 CellRange=     0.0.
 One-electron integrals computed using PRISM.
 One-electron integral symmetry used in STVInt
 NBasis=   832 RedAO= T EigKep=  1.81D-04  NBF=   832
 NBsUse=   832 1.00D-06 EigRej= -1.00D+00 NBFU=   832
 Precomputing XC quadrature grid using
 IXCGrd= 4 IRadAn=           5 IRanWt=          -1 IRanGd=           0 AccXCQ= 0.00D+00.
 Generated NRdTot=       0 NPtTot=           0 NUsed=           0 NTot=          32
 NSgBfM=   766   761   766   766   766 MxSgAt=    66 MxSgA2=    66.
 Leave Link  302 at Mon Oct  6 16:01:44 2025, MaxMem=  7516192768 cpu:              35.3 elap:               1.7
 (Enter /share/apps/softwares/gaussian/16/g16/l303.exe)
 DipDrv:  MaxL=1.
 Leave Link  303 at Mon Oct  6 16:01:45 2025, MaxMem=  7516192768 cpu:               2.9 elap:               0.2
 (Enter /share/apps/softwares/gaussian/16/g16/l308.exe)
 Leave Link  308 at Mon Oct  6 16:01:46 2025, MaxMem=  7516192768 cpu:               3.6 elap:               0.3
 (Enter /share/apps/softwares/gaussian/16/g16/l401.exe)
 ExpMin= 1.43D-01 ExpMax= 2.52D+04 ExpMxC= 3.78D+03 IAcc=3 IRadAn=         5 AccDes= 0.00D+00
 Harris functional with IExCor=  402 and IRadAn=       5 diagonalized for initial guess.
 HarFok:  IExCor=  402 AccDes= 0.00D+00 IRadAn=         5 IDoV= 1 UseB2=F ITyADJ=14
 ICtDFT=  3500011 ScaDFX=  1.000000  1.000000  1.000000  1.000000
 FoFCou: FMM=F IPFlag=           0 FMFlag=      100000 FMFlg1=        2001
         NFxFlg=           0 DoJE=T BraDBF=F KetDBF=T FulRan=T
         wScrn=  0.000000 ICntrl=       500 IOpCl=  0 I1Cent=   200000004 NGrid=           0
         NMat0=    1 NMatS0=      1 NMatT0=    0 NMatD0=    1 NMtDS0=    0 NMtDT0=    0
 Petite list used in FoFCou.
 Harris En= -5178.80778270980    
 JPrj=0 DoOrth=F DoCkMO=F.
 Initial guess <Sx>= 0.0000 <Sy>= 0.0000 <Sz>= 0.5000 <S**2>= 0.7500 S= 0.5000
 Leave Link  401 at Mon Oct  6 16:01:51 2025, MaxMem=  7516192768 cpu:              94.9 elap:               4.2
 (Enter /share/apps/softwares/gaussian/16/g16/l502.exe)
 Integral symmetry usage will be decided dynamically.
 UHF open shell SCF:
 Using DIIS extrapolation, IDIIS=  1040.
 NGot=  7516192768 LenX=  7514778677 LenY=  7514085621
 Requested convergence on RMS density matrix=1.00D-08 within 128 cycles.
 Requested convergence on MAX density matrix=1.00D-06.
 Requested convergence on             energy=1.00D-06.
 No special actions if energy rises.
 Fock matrices will be formed incrementally for  20 cycles.
 Integral accuracy reduced to 1.0D-05 until final iterations.

 Cycle   1  Pass 0  IDiag  1:
 FoFJK:  IHMeth= 1 ICntrl=       0 DoSepK=F KAlg= 0 I1Cent=           0 FoldK=F
 IRaf= 660000000 NMat=       1 IRICut=       1 DoRegI=T DoRafI=F ISym2E= 0 IDoP0=0 IntGTp=1.
 FoFCou: FMM=T IPFlag=           0 FMFlag=      100000 FMFlg1=        2001
         NFxFlg=           0 DoJE=F BraDBF=F KetDBF=F FulRan=T
         wScrn=  0.000000 ICntrl=         0 IOpCl=  1 I1Cent=           0 NGrid=           0
         NMat0=    1 NMatS0=      1 NMatT0=    0 NMatD0=    1 NMtDS0=    0 NMtDT0=    0
 Symmetry not used in FoFCou.
 FMM levels:  10  Number of levels for PrismC:   9
 E= -5178.41692073489    
 DIIS: error= 4.04D-02 at cycle   1 NSaved=   1.
 NSaved= 1 IEnMin= 1 EnMin= -5178.41692073489     IErMin= 1 ErrMin= 4.04D-02
 ErrMax= 4.04D-02  0.00D+00 EMaxC= 1.00D-01 BMatC= 3.74D+00 BMatP= 3.74D+00
 IDIUse=3 WtCom= 5.96D-01 WtEn= 4.04D-01
 Coeff-Com:  0.100D+01
 Coeff-En:   0.100D+01
 Coeff:      0.100D+01
 Gap=     0.155 Goal=   None    Shift=    0.000
 Gap=     0.206 Goal=   None    Shift=    0.000
 GapD=    0.155 DampG=1.000 DampE=0.500 DampFc=0.5000 IDamp=-1.
 Damping current iteration by 5.00D-01
 RMSDP=3.13D-03 MaxDP=1.41D-01              OVMax= 3.40D-01

 Cycle   2  Pass 0  IDiag  1:
 RMSU=  1.54D-03    CP:  9.82D-01
 E= -5178.83638476517     Delta-E=       -0.419464030278 Rises=F Damp=T
 DIIS: error= 9.81D-03 at cycle   2 NSaved=   2.
 NSaved= 2 IEnMin= 2 EnMin= -5178.83638476517     IErMin= 2 ErrMin= 9.81D-03
 ErrMax= 9.81D-03  0.00D+00 EMaxC= 1.00D-01 BMatC= 2.92D-01 BMatP= 3.74D+00
 IDIUse=3 WtCom= 9.02D-01 WtEn= 9.81D-02
 Coeff-Com:  0.612D-01 0.939D+00
 Coeff-En:   0.145D+00 0.855D+00
 Coeff:      0.693D-01 0.931D+00
 Gap=     0.180 Goal=   None    Shift=    0.000
 Gap=     0.038 Goal=   None    Shift=    0.000
 RMSDP=1.09D-03 MaxDP=7.23D-02 DE=-4.19D-01 OVMax= 2.00D-01

 Cycle   3  Pass 0  IDiag  1:
 RMSU=  1.06D-03    CP:  9.70D-01  8.98D-01
 E= -5179.36033559305     Delta-E=       -0.523950827881 Rises=F Damp=F
 DIIS: error= 5.89D-03 at cycle   3 NSaved=   3.
 NSaved= 3 IEnMin= 3 EnMin= -5179.36033559305     IErMin= 3 ErrMin= 5.89D-03
 ErrMax= 5.89D-03  0.00D+00 EMaxC= 1.00D-01 BMatC= 1.21D-01 BMatP= 2.92D-01
 IDIUse=3 WtCom= 9.41D-01 WtEn= 5.89D-02
 Coeff-Com: -0.335D-01 0.366D+00 0.668D+00
 Coeff-En:   0.000D+00 0.000D+00 0.100D+01
 Coeff:     -0.315D-01 0.344D+00 0.687D+00
 Gap=     0.154 Goal=   None    Shift=    0.000
 Gap=     0.083 Goal=   None    Shift=    0.000
 RMSDP=4.82D-04 MaxDP=2.78D-02 DE=-5.24D-01 OVMax= 6.82D-02

 Cycle   4  Pass 0  IDiag  1:
 RMSU=  3.81D-04    CP:  9.70D-01  9.90D-01  7.56D-01
 E= -5179.37075312381     Delta-E=       -0.010417530762 Rises=F Damp=F
 DIIS: error= 7.82D-03 at cycle   4 NSaved=   4.
 NSaved= 4 IEnMin= 4 EnMin= -5179.37075312381     IErMin= 3 ErrMin= 5.89D-03
 ErrMax= 7.82D-03  0.00D+00 EMaxC= 1.00D-01 BMatC= 8.47D-02 BMatP= 1.21D-01
 IDIUse=3 WtCom= 9.22D-01 WtEn= 7.82D-02
 Coeff-Com: -0.259D-01 0.127D+00 0.473D+00 0.427D+00
 Coeff-En:   0.000D+00 0.000D+00 0.424D+00 0.576D+00
 Coeff:     -0.238D-01 0.117D+00 0.469D+00 0.438D+00
 Gap=     0.128 Goal=   None    Shift=    0.000
 Gap=     0.075 Goal=   None    Shift=    0.000
 RMSDP=2.70D-04 MaxDP=2.00D-02 DE=-1.04D-02 OVMax= 5.54D-02

 Cycle   5  Pass 0  IDiag  1:
 RMSU=  1.50D-04    CP:  9.70D-01  9.78D-01  8.11D-01  4.31D-01
 E= -5179.39221084056     Delta-E=       -0.021457716748 Rises=F Damp=F
 DIIS: error= 2.65D-03 at cycle   5 NSaved=   5.
 NSaved= 5 IEnMin= 5 EnMin= -5179.39221084056     IErMin= 5 ErrMin= 2.65D-03
 ErrMax= 2.65D-03  0.00D+00 EMaxC= 1.00D-01 BMatC= 1.14D-02 BMatP= 8.47D-02
 IDIUse=3 WtCom= 9.73D-01 WtEn= 2.65D-02
 Coeff-Com: -0.110D-01 0.316D-01 0.231D+00 0.303D+00 0.445D+00
 Coeff-En:   0.000D+00 0.000D+00 0.000D+00 0.111D+00 0.889D+00
 Coeff:     -0.107D-01 0.307D-01 0.225D+00 0.298D+00 0.456D+00
 Gap=     0.129 Goal=   None    Shift=    0.000
 Gap=     0.070 Goal=   None    Shift=    0.000
 RMSDP=9.96D-05 MaxDP=4.87D-03 DE=-2.15D-02 OVMax= 2.48D-02

 Cycle   6  Pass 0  IDiag  1:
 RMSU=  5.51D-05    CP:  9.70D-01  9.72D-01  8.36D-01  5.29D-01  5.43D-01
 E= -5179.39528631680     Delta-E=       -0.003075476236 Rises=F Damp=F
 DIIS: error= 6.59D-04 at cycle   6 NSaved=   6.
 NSaved= 6 IEnMin= 6 EnMin= -5179.39528631680     IErMin= 6 ErrMin= 6.59D-04
 ErrMax= 6.59D-04  0.00D+00 EMaxC= 1.00D-01 BMatC= 8.09D-04 BMatP= 1.14D-02
 IDIUse=3 WtCom= 9.93D-01 WtEn= 6.59D-03
 Coeff-Com: -0.311D-02 0.342D-02 0.782D-01 0.122D+00 0.261D+00 0.538D+00
 Coeff-En:   0.000D+00 0.000D+00 0.000D+00 0.000D+00 0.000D+00 0.100D+01
 Coeff:     -0.309D-02 0.340D-02 0.777D-01 0.122D+00 0.259D+00 0.541D+00
 Gap=     0.127 Goal=   None    Shift=    0.000
 Gap=     0.072 Goal=   None    Shift=    0.000
 RMSDP=3.02D-05 MaxDP=2.13D-03 DE=-3.08D-03 OVMax= 9.43D-03

 Cycle   7  Pass 0  IDiag  1:
 RMSU=  2.19D-05    CP:  9.70D-01  9.74D-01  8.35D-01  5.31D-01  6.37D-01
                    CP:  7.28D-01
 E= -5179.39550115580     Delta-E=       -0.000214839003 Rises=F Damp=F
 DIIS: error= 2.76D-04 at cycle   7 NSaved=   7.
 NSaved= 7 IEnMin= 7 EnMin= -5179.39550115580     IErMin= 7 ErrMin= 2.76D-04
 ErrMax= 2.76D-04  0.00D+00 EMaxC= 1.00D-01 BMatC= 2.08D-04 BMatP= 8.09D-04
 IDIUse=3 WtCom= 9.97D-01 WtEn= 2.76D-03
 Coeff-Com: -0.138D-04-0.320D-02 0.100D-01 0.250D-01 0.837D-01 0.356D+00
 Coeff-Com:  0.528D+00
 Coeff-En:   0.000D+00 0.000D+00 0.000D+00 0.000D+00 0.000D+00 0.116D+00
 Coeff-En:   0.884D+00
 Coeff:     -0.138D-04-0.319D-02 0.100D-01 0.249D-01 0.834D-01 0.356D+00
 Coeff:      0.529D+00
 Gap=     0.127 Goal=   None    Shift=    0.000
 Gap=     0.073 Goal=   None    Shift=    0.000
 RMSDP=1.55D-05 MaxDP=1.94D-03 DE=-2.15D-04 OVMax= 3.66D-03

 Cycle   8  Pass 0  IDiag  1:
 RMSU=  1.17D-05    CP:  9.70D-01  9.73D-01  8.38D-01  5.37D-01  6.35D-01
                    CP:  8.62D-01  7.54D-01
 E= -5179.39557374196     Delta-E=       -0.000072586163 Rises=F Damp=F
 DIIS: error= 8.67D-05 at cycle   8 NSaved=   8.
 NSaved= 8 IEnMin= 8 EnMin= -5179.39557374196     IErMin= 8 ErrMin= 8.67D-05
 ErrMax= 8.67D-05  0.00D+00 EMaxC= 1.00D-01 BMatC= 3.31D-05 BMatP= 2.08D-04
 IDIUse=1 WtCom= 1.00D+00 WtEn= 0.00D+00
 Coeff-Com:  0.113D-02-0.290D-02-0.213D-01-0.293D-01-0.492D-01-0.675D-02
 Coeff-Com:  0.268D+00 0.840D+00
 Coeff:      0.113D-02-0.290D-02-0.213D-01-0.293D-01-0.492D-01-0.675D-02
 Coeff:      0.268D+00 0.840D+00
 Gap=     0.127 Goal=   None    Shift=    0.000
 Gap=     0.074 Goal=   None    Shift=    0.000
 RMSDP=9.87D-06 MaxDP=1.16D-03 DE=-7.26D-05 OVMax= 2.59D-03

 Cycle   9  Pass 0  IDiag  1:
 RMSU=  6.63D-06    CP:  9.70D-01  9.73D-01  8.39D-01  5.40D-01  6.49D-01
                    CP:  9.25D-01  1.02D+00  1.08D+00
 E= -5179.39559591627     Delta-E=       -0.000022174303 Rises=F Damp=F
 DIIS: error= 6.13D-05 at cycle   9 NSaved=   9.
 NSaved= 9 IEnMin= 9 EnMin= -5179.39559591627     IErMin= 9 ErrMin= 6.13D-05
 ErrMax= 6.13D-05  0.00D+00 EMaxC= 1.00D-01 BMatC= 1.64D-05 BMatP= 3.31D-05
 IDIUse=1 WtCom= 1.00D+00 WtEn= 0.00D+00
 Coeff-Com:  0.767D-03-0.118D-02-0.176D-01-0.270D-01-0.564D-01-0.105D+00
 Coeff-Com:  0.305D-01 0.566D+00 0.610D+00
 Coeff:      0.767D-03-0.118D-02-0.176D-01-0.270D-01-0.564D-01-0.105D+00
 Coeff:      0.305D-01 0.566D+00 0.610D+00
 Gap=     0.127 Goal=   None    Shift=    0.000
 Gap=     0.074 Goal=   None    Shift=    0.000
 RMSDP=6.09D-06 MaxDP=7.54D-04 DE=-2.22D-05 OVMax= 1.21D-03

 Initial convergence to 1.0D-05 achieved.  Increase integral accuracy.
 Cycle  10  Pass 1  IDiag  1:
 E= -5179.39565287952     Delta-E=       -0.000056963248 Rises=F Damp=F
 DIIS: error= 2.16D-04 at cycle   1 NSaved=   1.
 NSaved= 1 IEnMin= 1 EnMin= -5179.39565287952     IErMin= 1 ErrMin= 2.16D-04
 ErrMax= 2.16D-04  0.00D+00 EMaxC= 1.00D-01 BMatC= 7.52D-05 BMatP= 7.52D-05
 IDIUse=3 WtCom= 9.98D-01 WtEn= 2.16D-03
 Coeff-Com:  0.100D+01
 Coeff-En:   0.100D+01
 Coeff:      0.100D+01
 Gap=     0.127 Goal=   None    Shift=    0.000
 Gap=     0.074 Goal=   None    Shift=    0.000
 RMSDP=6.09D-06 MaxDP=7.54D-04 DE=-5.70D-05 OVMax= 1.29D-03

 Cycle  11  Pass 1  IDiag  1:
 RMSU=  1.08D-04    CP:  1.00D+00
 E= -5179.39566539004     Delta-E=       -0.000012510523 Rises=F Damp=F
 DIIS: error= 6.48D-05 at cycle   2 NSaved=   2.
 NSaved= 2 IEnMin= 2 EnMin= -5179.39566539004     IErMin= 2 ErrMin= 6.48D-05
 ErrMax= 6.48D-05  0.00D+00 EMaxC= 1.00D-01 BMatC= 1.98D-05 BMatP= 7.52D-05
 IDIUse=1 WtCom= 1.00D+00 WtEn= 0.00D+00
 Coeff-Com:  0.243D+00 0.757D+00
 Coeff:      0.243D+00 0.757D+00
 Gap=     0.127 Goal=   None    Shift=    0.000
 Gap=     0.073 Goal=   None    Shift=    0.000
 RMSDP=9.79D-06 MaxDP=6.12D-04 DE=-1.25D-05 OVMax= 2.10D-03

 Cycle  12  Pass 1  IDiag  1:
 RMSU=  9.77D-06    CP:  1.00D+00  1.01D+00
 E= -5179.39565435466     Delta-E=        0.000011035374 Rises=F Damp=F
 DIIS: error= 1.16D-04 at cycle   3 NSaved=   3.
 NSaved= 3 IEnMin= 2 EnMin= -5179.39566539004     IErMin= 2 ErrMin= 6.48D-05
 ErrMax= 1.16D-04  0.00D+00 EMaxC= 1.00D-01 BMatC= 6.03D-05 BMatP= 1.98D-05
 IDIUse=3 WtCom= 4.82D-01 WtEn= 5.18D-01
 Coeff-Com: -0.675D-02 0.641D+00 0.366D+00
 Coeff-En:   0.000D+00 0.679D+00 0.321D+00
 Coeff:     -0.325D-02 0.661D+00 0.343D+00
 Gap=     0.127 Goal=   None    Shift=    0.000
 Gap=     0.074 Goal=   None    Shift=    0.000
 RMSDP=5.78D-06 MaxDP=3.78D-04 DE= 1.10D-05 OVMax= 1.17D-03

 Cycle  13  Pass 1  IDiag  1:
 RMSU=  1.31D-06    CP:  1.00D+00  1.01D+00  4.28D-01
 E= -5179.39567185077     Delta-E=       -0.000017496106 Rises=F Damp=F
 DIIS: error= 1.31D-05 at cycle   4 NSaved=   4.
 NSaved= 4 IEnMin= 4 EnMin= -5179.39567185077     IErMin= 4 ErrMin= 1.31D-05
 ErrMax= 1.31D-05  0.00D+00 EMaxC= 1.00D-01 BMatC= 7.80D-07 BMatP= 1.98D-05
 IDIUse=1 WtCom= 1.00D+00 WtEn= 0.00D+00
 Coeff-Com: -0.689D-02 0.295D+00 0.120D+00 0.592D+00
 Coeff:     -0.689D-02 0.295D+00 0.120D+00 0.592D+00
 Gap=     0.127 Goal=   None    Shift=    0.000
 Gap=     0.074 Goal=   None    Shift=    0.000
 RMSDP=8.53D-07 MaxDP=5.87D-05 DE=-1.75D-05 OVMax= 1.97D-04

 Cycle  14  Pass 1  IDiag  1:
 RMSU=  6.54D-07    CP:  1.00D+00  1.01D+00  3.81D-01  1.23D+00
 E= -5179.39567221195     Delta-E=       -0.000000361177 Rises=F Damp=F
 DIIS: error= 7.05D-06 at cycle   5 NSaved=   5.
 NSaved= 5 IEnMin= 5 EnMin= -5179.39567221195     IErMin= 5 ErrMin= 7.05D-06
 ErrMax= 7.05D-06  0.00D+00 EMaxC= 1.00D-01 BMatC= 1.74D-07 BMatP= 7.80D-07
 IDIUse=1 WtCom= 1.00D+00 WtEn= 0.00D+00
 Coeff-Com:  0.333D-02-0.486D+00-0.304D+00 0.299D+00 0.149D+01
 Coeff:      0.333D-02-0.486D+00-0.304D+00 0.299D+00 0.149D+01
 Gap=     0.127 Goal=   None    Shift=    0.000
 Gap=     0.074 Goal=   None    Shift=    0.000
 RMSDP=1.55D-06 MaxDP=1.12D-04 DE=-3.61D-07 OVMax= 4.29D-04

 Cycle  15  Pass 1  IDiag  1:
 RMSU=  5.06D-07    CP:  1.00D+00  1.01D+00  3.88D-01  2.30D+00  1.59D+00
 E= -5179.39567254640     Delta-E=       -0.000000334454 Rises=F Damp=F
 DIIS: error= 7.29D-06 at cycle   6 NSaved=   6.
 NSaved= 6 IEnMin= 6 EnMin= -5179.39567254640     IErMin= 5 ErrMin= 7.05D-06
 ErrMax= 7.29D-06  0.00D+00 EMaxC= 1.00D-01 BMatC= 1.34D-07 BMatP= 1.74D-07
 IDIUse=1 WtCom= 1.00D+00 WtEn= 0.00D+00
 Coeff-Com:  0.469D-02-0.472D+00-0.276D+00 0.669D-01 0.118D+01 0.493D+00
 Coeff:      0.469D-02-0.472D+00-0.276D+00 0.669D-01 0.118D+01 0.493D+00
 Gap=     0.127 Goal=   None    Shift=    0.000
 Gap=     0.074 Goal=   None    Shift=    0.000
 RMSDP=6.08D-07 MaxDP=4.60D-05 DE=-3.34D-07 OVMax= 1.67D-04

 Cycle  16  Pass 1  IDiag  1:
 RMSU=  2.27D-07    CP:  1.00D+00  1.01D+00  3.96D-01  2.64D+00  2.04D+00
                    CP:  6.92D-01
 E= -5179.39567261074     Delta-E=       -0.000000064343 Rises=F Damp=F
 DIIS: error= 2.83D-06 at cycle   7 NSaved=   7.
 NSaved= 7 IEnMin= 7 EnMin= -5179.39567261074     IErMin= 7 ErrMin= 2.83D-06
 ErrMax= 2.83D-06  0.00D+00 EMaxC= 1.00D-01 BMatC= 1.16D-08 BMatP= 1.34D-07
 IDIUse=1 WtCom= 1.00D+00 WtEn= 0.00D+00
 Coeff-Com:  0.266D-02-0.253D+00-0.145D+00 0.113D-01 0.606D+00 0.312D+00
 Coeff-Com:  0.466D+00
 Coeff:      0.266D-02-0.253D+00-0.145D+00 0.113D-01 0.606D+00 0.312D+00
 Coeff:      0.466D+00
 Gap=     0.127 Goal=   None    Shift=    0.000
 Gap=     0.074 Goal=   None    Shift=    0.000
 RMSDP=1.26D-07 MaxDP=9.65D-06 DE=-6.43D-08 OVMax= 3.03D-05

 Cycle  17  Pass 1  IDiag  1:
 RMSU=  8.36D-08    CP:  1.00D+00  1.01D+00  3.97D-01  2.70D+00  2.07D+00
                    CP:  7.60D-01  7.60D-01
 E= -5179.39567261420     Delta-E=       -0.000000003451 Rises=F Damp=F
 DIIS: error= 1.25D-06 at cycle   8 NSaved=   8.
 NSaved= 8 IEnMin= 8 EnMin= -5179.39567261420     IErMin= 8 ErrMin= 1.25D-06
 ErrMax= 1.25D-06  0.00D+00 EMaxC= 1.00D-01 BMatC= 1.90D-09 BMatP= 1.16D-08
 IDIUse=1 WtCom= 1.00D+00 WtEn= 0.00D+00
 Coeff-Com:  0.983D-03-0.895D-01-0.506D-01-0.251D-02 0.206D+00 0.123D+00
 Coeff-Com:  0.310D+00 0.503D+00
 Coeff:      0.983D-03-0.895D-01-0.506D-01-0.251D-02 0.206D+00 0.123D+00
 Coeff:      0.310D+00 0.503D+00
 Gap=     0.127 Goal=   None    Shift=    0.000
 Gap=     0.074 Goal=   None    Shift=    0.000
 RMSDP=4.26D-08 MaxDP=4.20D-06 DE=-3.45D-09 OVMax= 1.06D-05

 Cycle  18  Pass 1  IDiag  1:
 RMSU=  3.06D-08    CP:  1.00D+00  1.01D+00  3.97D-01  2.70D+00  2.08D+00
                    CP:  7.64D-01  8.24D-01  7.31D-01
 E= -5179.39567261482     Delta-E=       -0.000000000629 Rises=F Damp=F
 DIIS: error= 3.52D-07 at cycle   9 NSaved=   9.
 NSaved= 9 IEnMin= 9 EnMin= -5179.39567261482     IErMin= 9 ErrMin= 3.52D-07
 ErrMax= 3.52D-07  0.00D+00 EMaxC= 1.00D-01 BMatC= 2.73D-10 BMatP= 1.90D-09
 IDIUse=1 WtCom= 1.00D+00 WtEn= 0.00D+00
 Coeff-Com: -0.109D-03 0.125D-01 0.768D-02-0.370D-02-0.353D-01-0.973D-02
 Coeff-Com:  0.634D-01 0.291D+00 0.674D+00
 Coeff:     -0.109D-03 0.125D-01 0.768D-02-0.370D-02-0.353D-01-0.973D-02
 Coeff:      0.634D-01 0.291D+00 0.674D+00
 Gap=     0.127 Goal=   None    Shift=    0.000
 Gap=     0.074 Goal=   None    Shift=    0.000
 RMSDP=2.00D-08 MaxDP=2.47D-06 DE=-6.29D-10 OVMax= 5.78D-06

 Cycle  19  Pass 1  IDiag  1:
 RMSU=  1.74D-08    CP:  1.00D+00  1.01D+00  3.97D-01  2.70D+00  2.08D+00
                    CP:  7.68D-01  8.39D-01  8.07D-01  8.31D-01
 E= -5179.39567261494     Delta-E=       -0.000000000115 Rises=F Damp=F
 DIIS: error= 1.96D-07 at cycle  10 NSaved=  10.
 NSaved=10 IEnMin=10 EnMin= -5179.39567261494     IErMin=10 ErrMin= 1.96D-07
 ErrMax= 1.96D-07  0.00D+00 EMaxC= 1.00D-01 BMatC= 6.98D-11 BMatP= 2.73D-10
 IDIUse=1 WtCom= 1.00D+00 WtEn= 0.00D+00
 Coeff-Com: -0.306D-03 0.294D-01 0.170D-01-0.119D-02-0.715D-01-0.366D-01
 Coeff-Com: -0.429D-01 0.370D-01 0.375D+00 0.694D+00
 Coeff:     -0.306D-03 0.294D-01 0.170D-01-0.119D-02-0.715D-01-0.366D-01
 Coeff:     -0.429D-01 0.370D-01 0.375D+00 0.694D+00
 Gap=     0.127 Goal=   None    Shift=    0.000
 Gap=     0.074 Goal=   None    Shift=    0.000
 RMSDP=1.24D-08 MaxDP=1.50D-06 DE=-1.15D-10 OVMax= 3.35D-06

 Cycle  20  Pass 1  IDiag  1:
 RMSU=  1.00D-08    CP:  1.00D+00  1.01D+00  3.97D-01  2.71D+00  2.09D+00
                    CP:  7.70D-01  8.48D-01  8.30D-01  1.03D+00  1.14D+00
 E= -5179.39567261501     Delta-E=       -0.000000000075 Rises=F Damp=F
 DIIS: error= 1.34D-07 at cycle  11 NSaved=  11.
 NSaved=11 IEnMin=11 EnMin= -5179.39567261501     IErMin=11 ErrMin= 1.34D-07
 ErrMax= 1.34D-07  0.00D+00 EMaxC= 1.00D-01 BMatC= 2.15D-11 BMatP= 6.98D-11
 IDIUse=1 WtCom= 1.00D+00 WtEn= 0.00D+00
 Coeff-Com: -0.111D-03 0.992D-02 0.559D-02 0.645D-03-0.223D-01-0.144D-01
 Coeff-Com: -0.431D-01-0.829D-01-0.406D-01 0.363D+00 0.824D+00
 Coeff:     -0.111D-03 0.992D-02 0.559D-02 0.645D-03-0.223D-01-0.144D-01
 Coeff:     -0.431D-01-0.829D-01-0.406D-01 0.363D+00 0.824D+00
 Gap=     0.127 Goal=   None    Shift=    0.000
 Gap=     0.074 Goal=   None    Shift=    0.000
 RMSDP=9.21D-09 MaxDP=1.07D-06 DE=-7.46D-11 OVMax= 3.03D-06

 Cycle  21  Pass 1  IDiag  1:
 RMSU=  5.22D-09    CP:  1.00D+00  1.01D+00  3.97D-01  2.71D+00  2.09D+00
                    CP:  7.71D-01  8.51D-01  8.50D-01  1.14D+00  1.50D+00
                    CP:  1.13D+00
 E= -5179.39567261500     Delta-E=        0.000000000016 Rises=F Damp=F
 DIIS: error= 8.61D-08 at cycle  12 NSaved=  12.
 NSaved=12 IEnMin=11 EnMin= -5179.39567261501     IErMin=12 ErrMin= 8.61D-08
 ErrMax= 8.61D-08  0.00D+00 EMaxC= 1.00D-01 BMatC= 8.20D-12 BMatP= 2.15D-11
 IDIUse=1 WtCom= 1.00D+00 WtEn= 0.00D+00
 Coeff-Com:  0.412D-04-0.442D-02-0.264D-02 0.674D-03 0.120D-01 0.441D-02
 Coeff-Com: -0.109D-01-0.654D-01-0.161D+00-0.420D-01 0.482D+00 0.788D+00
 Coeff:      0.412D-04-0.442D-02-0.264D-02 0.674D-03 0.120D-01 0.441D-02
 Coeff:     -0.109D-01-0.654D-01-0.161D+00-0.420D-01 0.482D+00 0.788D+00
 Gap=     0.127 Goal=   None    Shift=    0.000
 Gap=     0.074 Goal=   None    Shift=    0.000
 RMSDP=6.61D-09 MaxDP=8.18D-07 DE= 1.64D-11 OVMax= 2.30D-06

 SCF Done:  E(UB3LYP) =  -5179.39567261     A.U. after   21 cycles
            NFock= 21  Conv=0.66D-08     -V/T= 2.0050
 <Sx>= 0.0000 <Sy>= 0.0000 <Sz>= 0.5000 <S**2>= 0.7713 S= 0.5106
 <L.S>=  0.00000000000    
 KE= 5.153607588564D+03 PE=-2.649092362397D+04 EE= 9.020324662041D+03
 Annihilation of the first spin contaminant:
 S**2 before annihilation     0.7713,   after     0.7504
 Leave Link  502 at Mon Oct  6 16:05:29 2025, MaxMem=  7516192768 cpu:            5178.2 elap:             216.5
 (Enter /share/apps/softwares/gaussian/16/g16/l801.exe)
 DoSCS=F DFT=T ScalE2(SS,OS)=  1.000000  1.000000
 ExpMin= 1.43D-01 ExpMax= 2.52D+04 ExpMxC= 3.78D+03 IAcc=3 IRadAn=         5 AccDes= 0.00D+00
 HarFok:  IExCor=  205 AccDes= 0.00D+00 IRadAn=         5 IDoV=-2 UseB2=F ITyADJ=14
 ICtDFT= 12500011 ScaDFX=  1.000000  1.000000  1.000000  1.000000
 GSVD:  LWork=       -6873 too small for GESVD, short by       32390 words or       32390 for optimal perf.
 Largest valence mixing into a core orbital is  7.96D-05
 Largest core mixing into a valence orbital is  3.21D-05
 Largest valence mixing into a core orbital is  7.96D-05
 Largest core mixing into a valence orbital is  3.35D-05
 Range of M.O.s used for correlation:    80   832
 NBasis=   832 NAE=   195 NBE=   194 NFC=    79 NFV=     0
 NROrb=    753 NOA=   116 NOB=   115 NVA=   637 NVB=   638

 **** Warning!!: The smallest beta delta epsilon is  0.73687688D-01

 Leave Link  801 at Mon Oct  6 16:05:32 2025, MaxMem=  7516192768 cpu:              14.0 elap:               1.0
 (Enter /share/apps/softwares/gaussian/16/g16/l914.exe)
 UHF ground state
 Two-electron integrals replicated using symmetry.
 MDV=  7516192768 DFT=T DoStab=F Mixed=T DoRPA=T DoScal=F NonHer=T
 Making orbital integer symmetry assigments:
 Orbital symmetries:
 Alpha Orbitals:
       Occupied  (A) (A) (A) (A) (A) (A) (A) (A) (A) (A) (A) (A)
                 (A) (A) (A) (A) (A) (A) (A) (A) (A) (A) (A) (A)
                 (A) (A) (A) (A) (A) (A) (A) (A) (A) (A) (A) (A)
                 (A) (A) (A) (A) (A) (A) (A) (A) (A) (A) (A) (A)
                 (A) (A) (A) (A) (A) (A) (A) (A) (A) (A) (A) (A)
                 (A) (A) (A) (A) (A) (A) (A) (A) (A) (A) (A) (A)
                 (A) (A) (A) (A) (A) (A) (A) (A) (A) (A) (A) (A)
                 (A) (A) (A) (A) (A) (A) (A) (A) (A) (A) (A) (A)
                 (A) (A) (A) (A) (A) (A) (A) (A) (A) (A) (A) (A)
                 (A) (A) (A) (A) (A) (A) (A) (A) (A) (A) (A) (A)
                 (A) (A) (A) (A) (A) (A) (A) (A) (A) (A) (A) (A)
                 (A) (A) (A) (A) (A) (A) (A) (A) (A) (A) (A) (A)
                 (A) (A) (A) (A) (A) (A) (A) (A) (A) (A) (A) (A)
                 (A) (A) (A) (A) (A) (A) (A) (A) (A) (A) (A) (A)
                 (A) (A) (A) (A) (A) (A) (A) (A) (A) (A) (A) (A)
                 (A) (A) (A) (A) (A) (A) (A) (A) (A) (A) (A) (A)
                 (A) (A) (A)
       Virtual   (A) (A) (A) (A) (A) (A) (A) (A) (A) (A) (A) (A)
                 (A) (A) (A) (A) (A) (A) (A) (A) (A) (A) (A) (A)
                 (A) (A) (A) (A) (A) (A) (A) (A) (A) (A) (A) (A)
                 (A) (A) (A) (A) (A) (A) (A) (A) (A) (A) (A) (A)
                 (A) (A) (A) (A) (A) (A) (A) (A) (A) (A) (A) (A)
                 (A) (A) (A) (A) (A) (A) (A) (A) (A) (A) (A) (A)
                 (A) (A) (A) (A) (A) (A) (A) (A) (A) (A) (A) (A)
                 (A) (A) (A) (A) (A) (A) (A) (A) (A) (A) (A) (A)
                 (A) (A) (A) (A) (A) (A) (A) (A) (A) (A) (A) (A)
                 (A) (A) (A) (A) (A) (A) (A) (A) (A) (A) (A) (A)
                 (A) (A) (A) (A) (A) (A) (A) (A) (A) (A) (A) (A)
                 (A) (A) (A) (A) (A) (A) (A) (A) (A) (A) (A) (A)
                 (A) (A) (A) (A) (A) (A) (A) (A) (A) (A) (A) (A)
                 (A) (A) (A) (A) (A) (A) (A) (A) (A) (A) (A) (A)
                 (A) (A) (A) (A) (A) (A) (A) (A) (A) (A) (A) (A)
                 (A) (A) (A) (A) (A) (A) (A) (A) (A) (A) (A) (A)
                 (A) (A) (A) (A) (A) (A) (A) (A) (A) (A) (A) (A)
                 (A) (A) (A) (A) (A) (A) (A) (A) (A) (A) (A) (A)
                 (A) (A) (A) (A) (A) (A) (A) (A) (A) (A) (A) (A)
                 (A) (A) (A) (A) (A) (A) (A) (A) (A) (A) (A) (A)
                 (A) (A) (A) (A) (A) (A) (A) (A) (A) (A) (A) (A)
                 (A) (A) (A) (A) (A) (A) (A) (A) (A) (A) (A) (A)
                 (A) (A) (A) (A) (A) (A) (A) (A) (A) (A) (A) (A)
                 (A) (A) (A) (A) (A) (A) (A) (A) (A) (A) (A) (A)
                 (A) (A) (A) (A) (A) (A) (A) (A) (A) (A) (A) (A)
                 (A) (A) (A) (A) (A) (A) (A) (A) (A) (A) (A) (A)
                 (A) (A) (A) (A) (A) (A) (A) (A) (A) (A) (A) (A)
                 (A) (A) (A) (A) (A) (A) (A) (A) (A) (A) (A) (A)
                 (A) (A) (A) (A) (A) (A) (A) (A) (A) (A) (A) (A)
                 (A) (A) (A) (A) (A) (A) (A) (A) (A) (A) (A) (A)
                 (A) (A) (A) (A) (A) (A) (A) (A) (A) (A) (A) (A)
                 (A) (A) (A) (A) (A) (A) (A) (A) (A) (A) (A) (A)
                 (A) (A) (A) (A) (A) (A) (A) (A) (A) (A) (A) (A)
                 (A) (A) (A) (A) (A) (A) (A) (A) (A) (A) (A) (A)
                 (A) (A) (A) (A) (A) (A) (A) (A) (A) (A) (A) (A)
                 (A) (A) (A) (A) (A) (A) (A) (A) (A) (A) (A) (A)
                 (A) (A) (A) (A) (A) (A) (A) (A) (A) (A) (A) (A)
                 (A) (A) (A) (A) (A) (A) (A) (A) (A) (A) (A) (A)
                 (A) (A) (A) (A) (A) (A) (A) (A) (A) (A) (A) (A)
                 (A) (A) (A) (A) (A) (A) (A) (A) (A) (A) (A) (A)
                 (A) (A) (A) (A) (A) (A) (A) (A) (A) (A) (A) (A)
                 (A) (A) (A) (A) (A) (A) (A) (A) (A) (A) (A) (A)
                 (A) (A) (A) (A) (A) (A) (A) (A) (A) (A) (A) (A)
                 (A) (A) (A) (A) (A) (A) (A) (A) (A) (A) (A) (A)
                 (A) (A) (A) (A) (A) (A) (A) (A) (A) (A) (A) (A)
                 (A) (A) (A) (A) (A) (A) (A) (A) (A) (A) (A) (A)
                 (A) (A) (A) (A) (A) (A) (A) (A) (A) (A) (A) (A)
                 (A) (A) (A) (A) (A) (A) (A) (A) (A) (A) (A) (A)
                 (A) (A) (A) (A) (A) (A) (A) (A) (A) (A) (A) (A)
                 (A) (A) (A) (A) (A) (A) (A) (A) (A) (A) (A) (A)
                 (A) (A) (A) (A) (A) (A) (A) (A) (A) (A) (A) (A)
                 (A) (A) (A) (A) (A) (A) (A) (A) (A) (A) (A) (A)
                 (A) (A) (A) (A) (A) (A) (A) (A) (A) (A) (A) (A)
                 (A)
 Beta  Orbitals:
       Occupied  (A) (A) (A) (A) (A) (A) (A) (A) (A) (A) (A) (A)
                 (A) (A) (A) (A) (A) (A) (A) (A) (A) (A) (A) (A)
                 (A) (A) (A) (A) (A) (A) (A) (A) (A) (A) (A) (A)
                 (A) (A) (A) (A) (A) (A) (A) (A) (A) (A) (A) (A)
                 (A) (A) (A) (A) (A) (A) (A) (A) (A) (A) (A) (A)
                 (A) (A) (A) (A) (A) (A) (A) (A) (A) (A) (A) (A)
                 (A) (A) (A) (A) (A) (A) (A) (A) (A) (A) (A) (A)
                 (A) (A) (A) (A) (A) (A) (A) (A) (A) (A) (A) (A)
                 (A) (A) (A) (A) (A) (A) (A) (A) (A) (A) (A) (A)
                 (A) (A) (A) (A) (A) (A) (A) (A) (A) (A) (A) (A)
                 (A) (A) (A) (A) (A) (A) (A) (A) (A) (A) (A) (A)
                 (A) (A) (A) (A) (A) (A) (A) (A) (A) (A) (A) (A)
                 (A) (A) (A) (A) (A) (A) (A) (A) (A) (A) (A) (A)
                 (A) (A) (A) (A) (A) (A) (A) (A) (A) (A) (A) (A)
                 (A) (A) (A) (A) (A) (A) (A) (A) (A) (A) (A) (A)
                 (A) (A) (A) (A) (A) (A) (A) (A) (A) (A) (A) (A)
                 (A) (A)
       Virtual   (A) (A) (A) (A) (A) (A) (A) (A) (A) (A) (A) (A)
                 (A) (A) (A) (A) (A) (A) (A) (A) (A) (A) (A) (A)
                 (A) (A) (A) (A) (A) (A) (A) (A) (A) (A) (A) (A)
                 (A) (A) (A) (A) (A) (A) (A) (A) (A) (A) (A) (A)
                 (A) (A) (A) (A) (A) (A) (A) (A) (A) (A) (A) (A)
                 (A) (A) (A) (A) (A) (A) (A) (A) (A) (A) (A) (A)
                 (A) (A) (A) (A) (A) (A) (A) (A) (A) (A) (A) (A)
                 (A) (A) (A) (A) (A) (A) (A) (A) (A) (A) (A) (A)
                 (A) (A) (A) (A) (A) (A) (A) (A) (A) (A) (A) (A)
                 (A) (A) (A) (A) (A) (A) (A) (A) (A) (A) (A) (A)
                 (A) (A) (A) (A) (A) (A) (A) (A) (A) (A) (A) (A)
                 (A) (A) (A) (A) (A) (A) (A) (A) (A) (A) (A) (A)
                 (A) (A) (A) (A) (A) (A) (A) (A) (A) (A) (A) (A)
                 (A) (A) (A) (A) (A) (A) (A) (A) (A) (A) (A) (A)
                 (A) (A) (A) (A) (A) (A) (A) (A) (A) (A) (A) (A)
                 (A) (A) (A) (A) (A) (A) (A) (A) (A) (A) (A) (A)
                 (A) (A) (A) (A) (A) (A) (A) (A) (A) (A) (A) (A)
                 (A) (A) (A) (A) (A) (A) (A) (A) (A) (A) (A) (A)
                 (A) (A) (A) (A) (A) (A) (A) (A) (A) (A) (A) (A)
                 (A) (A) (A) (A) (A) (A) (A) (A) (A) (A) (A) (A)
                 (A) (A) (A) (A) (A) (A) (A) (A) (A) (A) (A) (A)
                 (A) (A) (A) (A) (A) (A) (A) (A) (A) (A) (A) (A)
                 (A) (A) (A) (A) (A) (A) (A) (A) (A) (A) (A) (A)
                 (A) (A) (A) (A) (A) (A) (A) (A) (A) (A) (A) (A)
                 (A) (A) (A) (A) (A) (A) (A) (A) (A) (A) (A) (A)
                 (A) (A) (A) (A) (A) (A) (A) (A) (A) (A) (A) (A)
                 (A) (A) (A) (A) (A) (A) (A) (A) (A) (A) (A) (A)
                 (A) (A) (A) (A) (A) (A) (A) (A) (A) (A) (A) (A)
                 (A) (A) (A) (A) (A) (A) (A) (A) (A) (A) (A) (A)
                 (A) (A) (A) (A) (A) (A) (A) (A) (A) (A) (A) (A)
                 (A) (A) (A) (A) (A) (A) (A) (A) (A) (A) (A) (A)
                 (A) (A) (A) (A) (A) (A) (A) (A) (A) (A) (A) (A)
                 (A) (A) (A) (A) (A) (A) (A) (A) (A) (A) (A) (A)
                 (A) (A) (A) (A) (A) (A) (A) (A) (A) (A) (A) (A)
                 (A) (A) (A) (A) (A) (A) (A) (A) (A) (A) (A) (A)
                 (A) (A) (A) (A) (A) (A) (A) (A) (A) (A) (A) (A)
                 (A) (A) (A) (A) (A) (A) (A) (A) (A) (A) (A) (A)
                 (A) (A) (A) (A) (A) (A) (A) (A) (A) (A) (A) (A)
                 (A) (A) (A) (A) (A) (A) (A) (A) (A) (A) (A) (A)
                 (A) (A) (A) (A) (A) (A) (A) (A) (A) (A) (A) (A)
                 (A) (A) (A) (A) (A) (A) (A) (A) (A) (A) (A) (A)
                 (A) (A) (A) (A) (A) (A) (A) (A) (A) (A) (A) (A)
                 (A) (A) (A) (A) (A) (A) (A) (A) (A) (A) (A) (A)
                 (A) (A) (A) (A) (A) (A) (A) (A) (A) (A) (A) (A)
                 (A) (A) (A) (A) (A) (A) (A) (A) (A) (A) (A) (A)
                 (A) (A) (A) (A) (A) (A) (A) (A) (A) (A) (A) (A)
                 (A) (A) (A) (A) (A) (A) (A) (A) (A) (A) (A) (A)
                 (A) (A) (A) (A) (A) (A) (A) (A) (A) (A) (A) (A)
                 (A) (A) (A) (A) (A) (A) (A) (A) (A) (A) (A) (A)
                 (A) (A) (A) (A) (A) (A) (A) (A) (A) (A) (A) (A)
                 (A) (A) (A) (A) (A) (A) (A) (A) (A) (A) (A) (A)
                 (A) (A) (A) (A) (A) (A) (A) (A) (A) (A) (A) (A)
                 (A) (A) (A) (A) (A) (A) (A) (A) (A) (A) (A) (A)
                 (A) (A)
    80 initial guesses have been made.
 Convergence on wavefunction:    0.001000000000000
 Davidson Disk Diagonalization:  ConvIn= 1.00D-03 SkipCon=T Conv= 1.00D-03.
 Max sub-space:  2000 roots to seek:    80 dimension of matrix:       147262
 Iteration     1 Dimension    80 NMult     0 NNew     80
 CISAX will form    80 AO SS matrices at one time.
 NMat=    80 NSing=    80 JSym2X= 0.
 FoFJK:  IHMeth= 1 ICntrl=       0 DoSepK=F KAlg= 0 I1Cent=           0 FoldK=F
 IRaf= 660000000 NMat=     160 IRICut=       1 DoRegI=T DoRafI=F ISym2E= 0 IDoP0=0 IntGTp=1.
 FoFCou: FMM=T IPFlag=           0 FMFlag=      100000 FMFlg1=        2001
         NFxFlg=           0 DoJE=F BraDBF=F KetDBF=F FulRan=T
         wScrn=  0.000000 ICntrl=         0 IOpCl=  1 I1Cent=           0 NGrid=           0
         NMat0=  160 NMatS0=     80 NMatT0=    0 NMatD0=  160 NMtDS0=    0 NMtDT0=    0
 Symmetry not used in FoFCou.
 FMM levels:  10  Number of levels for PrismC:   9
 New state      2 was old state      5
 New state      3 was old state      2
 New state      4 was old state      6
 New state      5 was old state      9
 New state      6 was old state      3
 New state      7 was old state     10
 New state      8 was old state     12
 New state      9 was old state     11
 New state     10 was old state     14
 New state     11 was old state      7
 New state     12 was old state      8
 New state     14 was old state     17
 New state     16 was old state     20
 New state     17 was old state     34
 New state     18 was old state     24
 New state     19 was old state     30
 New state     20 was old state     16
 Excitation Energies [eV] at current iteration:
 Root      1 :     1.734631057942191
 Root      2 :     2.172540754768840
 Root      3 :     2.581466870192825
 Root      4 :     2.759292054106581
 Root      5 :     2.906170177281620
 Root      6 :     3.028265640247400
 Root      7 :     3.037915807023191
 Root      8 :     3.061530686453877
 Root      9 :     3.249665056751186
 Root     10 :     3.288021966740172
 Root     11 :     3.363960293529810
 Root     12 :     3.369196520712653
 Root     13 :     3.408951555170491
 Root     14 :     3.531450302597012
 Root     15 :     3.578175917225183
 Root     16 :     3.587674941035729
 Root     17 :     3.590064566853305
 Root     18 :     3.712814510215992
 Root     19 :     3.743091191748253
 Root     20 :     3.781133413150864
 Root     21 :     3.790562152997505
 Root     22 :     3.865036396917251
 Root     23 :     3.901033942004681
 Root     24 :     3.911920529384930
 Root     25 :     3.920358821543282
 Root     26 :     3.954087497349597
 Root     27 :     3.983648424046657
 Root     28 :     3.990707927635048
 Root     29 :     4.019466479510569
 Root     30 :     4.056686349753878
 Root     31 :     4.156009370411258
 Root     32 :     4.176734320775261
 Root     33 :     4.215614589941696
 Root     34 :     4.223877606298833
 Root     35 :     4.273825396943052
 Root     36 :     4.322975858936328
 Root     37 :     4.329514227676095
 Root     38 :     4.376676914894175
 Root     39 :     4.395641170797787
 Root     40 :     4.445492668110008
 Root     41 :     4.469164413091818
 Root     42 :     4.487404183014778
 Root     43 :     4.488136774436954
 Root     44 :     4.512693020378395
 Root     45 :     4.527102843125948
 Root     46 :     4.532869018355068
 Root     47 :     4.572946621551909
 Root     48 :     4.573078059174249
 Root     49 :     4.601245061838624
 Root     50 :     4.637247095808871
 Root     51 :     4.677344208919509
 Root     52 :     4.710266244227954
 Root     53 :     4.721160414786858
 Root     54 :     4.728977623245599
 Root     55 :     4.735340021863341
 Root     56 :     4.751498432820700
 Root     57 :     4.757880507458372
 Root     58 :     4.781421855003808
 Root     59 :     4.785971980474430
 Root     60 :     4.844571437594914
 Root     61 :     4.851389117221217
 Root     62 :     4.868557495153428
 Root     63 :     4.894698922910063
 Root     64 :     4.922862785837264
 Root     65 :     4.929704146448383
 Root     66 :     4.932858703679217
 Root     67 :     4.963416587418770
 Root     68 :     4.980104261827977
 Root     69 :     5.028773009417693
 Root     70 :     5.056764023625850
 Root     71 :     5.058380413122048
 Root     72 :     5.067054586967222
 Root     73 :     5.084462205901643
 Root     74 :     5.159577787350118
 Root     75 :     5.163944053620490
 Root     76 :     5.236048521045475
 Root     77 :     5.261394799440314
 Root     78 :     5.396912188162790
 Root     79 :     5.451450066232532
 Root     80 :     6.013144789813136
 Iteration     2 Dimension   120 NMult    80 NNew     40
 CISAX will form    40 AO SS matrices at one time.
 NMat=    40 NSing=    40 JSym2X= 0.
 Root      1 not converged, maximum delta is    0.284188584277543
 Root      2 not converged, maximum delta is    0.336017077652788
 Root      3 not converged, maximum delta is    0.067589260957911
 Root      4 not converged, maximum delta is    0.069078952027217
 Root      5 not converged, maximum delta is    0.082235383527656
 New state      6 was old state      7
 Root      6 not converged, maximum delta is    0.158002151745002
 New state      7 was old state      8
 Root      7 not converged, maximum delta is    0.064964791278449
 New state      8 was old state      6
 Root      8 not converged, maximum delta is    0.019470038059773
 Root      9 not converged, maximum delta is    0.497760444099075
 Root     10 not converged, maximum delta is    0.279140957804259
 New state     11 was old state     13
 Root     11 not converged, maximum delta is    0.425188025273938
 Root     12 not converged, maximum delta is    0.220461428912953
 New state     13 was old state     11
 Root     13 not converged, maximum delta is    0.075141665596250
 New state     14 was old state     16
 Root     14 not converged, maximum delta is    0.280805515942696
 New state     15 was old state     14
 Root     15 not converged, maximum delta is    0.635739040615773
 New state     16 was old state     17
 Root     16 not converged, maximum delta is    0.308447320077478
 New state     17 was old state     27
 Root     17 not converged, maximum delta is    0.386839233223822
 Root     18 not converged, maximum delta is    0.148497328341995
 New state     19 was old state     15
 Root     19 not converged, maximum delta is    0.215219355454329
 New state     20 was old state     21
 Root     20 not converged, maximum delta is    0.148976739474552
 Excitation Energies [eV] at current iteration:
 Root      1 :     1.716474277610094   Change is   -0.018156780332097
 Root      2 :     1.805263252823286   Change is   -0.367277501945555
 Root      3 :     2.463180568329006   Change is   -0.118286301863819
 Root      4 :     2.656186354007255   Change is   -0.103105700099326
 Root      5 :     2.820167763467998   Change is   -0.086002413813622
 Root      6 :     2.945914694405726   Change is   -0.092001112617465
 Root      7 :     2.973715777337230   Change is   -0.087814909116648
 Root      8 :     3.026471132483914   Change is   -0.001794507763486
 Root      9 :     3.081894459066021   Change is   -0.167770597685164
 Root     10 :     3.093780075730598   Change is   -0.194241891009574
 Root     11 :     3.269928658219712   Change is   -0.139022896950779
 Root     12 :     3.336720516425811   Change is   -0.032476004286842
 Root     13 :     3.343909894855059   Change is   -0.020050398674750
 Root     14 :     3.376406914506138   Change is   -0.211268026529591
 Root     15 :     3.429941848447350   Change is   -0.101508454149662
 Root     16 :     3.489518182748211   Change is   -0.100546384105094
 Root     17 :     3.498134904578505   Change is   -0.485513519468152
 Root     18 :     3.539550325267953   Change is   -0.173264184948040
 Root     19 :     3.554815846897954   Change is   -0.023360070327229
 Root     20 :     3.654397414751877   Change is   -0.136164738245629
 Iteration     3 Dimension   160 NMult   120 NNew     40
 CISAX will form    40 AO SS matrices at one time.
 NMat=    40 NSing=    40 JSym2X= 0.
 Root      1 not converged, maximum delta is    0.089652155214396
 Root      2 not converged, maximum delta is    0.110299867899290
 Root      3 not converged, maximum delta is    0.023847422495884
 Root      4 not converged, maximum delta is    0.036552332024948
 Root      5 not converged, maximum delta is    0.051575183049637
 Root      6 not converged, maximum delta is    0.051899508054208
 Root      7 not converged, maximum delta is    0.029417446793709
 Root      8 not converged, maximum delta is    0.004264704988643
 New state      9 was old state     10
 Root      9 not converged, maximum delta is    0.141011487782014
 New state     10 was old state      9
 Root     10 not converged, maximum delta is    0.176237677560836
 Root     11 not converged, maximum delta is    0.234952648806195
 New state     12 was old state     14
 Root     12 not converged, maximum delta is    0.393099702940840
 New state     13 was old state     12
 Root     13 not converged, maximum delta is    0.132719512174680
 New state     14 was old state     13
 Root     14 not converged, maximum delta is    0.386725950142378
 New state     15 was old state     16
 Root     15 not converged, maximum delta is    0.531474276669305
 New state     16 was old state     15
 Root     16 not converged, maximum delta is    0.255354798898487
 Root     17 not converged, maximum delta is    0.181106555284529
 New state     18 was old state     19
 Root     18 not converged, maximum delta is    0.884841089476165
 New state     19 was old state     18
 Root     19 not converged, maximum delta is    0.025514445306048
 No map to state     20
 Excitation Energies [eV] at current iteration:
 Root      1 :     1.710498826447457   Change is   -0.005975451162637
 Root      2 :     1.785480085776080   Change is   -0.019783167047206
 Root      3 :     2.440811960908364   Change is   -0.022368607420643
 Root      4 :     2.629301475062161   Change is   -0.026884878945094
 Root      5 :     2.804448714431306   Change is   -0.015719049036692
 Root      6 :     2.926855042543655   Change is   -0.019059651862070
 Root      7 :     2.960242407962649   Change is   -0.013473369374580
 Root      8 :     3.026179821312864   Change is   -0.000291311171050
 Root      9 :     3.037786169411552   Change is   -0.055993906319046
 Root     10 :     3.049010485266819   Change is   -0.032883973799203
 Root     11 :     3.189108585357342   Change is   -0.080820072862370
 Root     12 :     3.320173019121967   Change is   -0.056233895384171
 Root     13 :     3.323344354027034   Change is   -0.013376162398777
 Root     14 :     3.330657113300552   Change is   -0.013252781554508
 Root     15 :     3.360123829813900   Change is   -0.129394352934311
 Root     16 :     3.406512434974432   Change is   -0.023429413472918
 Root     17 :     3.460467429045314   Change is   -0.037667475533191
 Root     18 :     3.492527966138620   Change is   -0.062287880759335
 Root     19 :     3.515764573364511   Change is   -0.023785751903442
 Root     20 :     3.555020010294387
 Iteration     4 Dimension   200 NMult   160 NNew     40
 CISAX will form    40 AO SS matrices at one time.
 NMat=    40 NSing=    40 JSym2X= 0.
 Root      1 not converged, maximum delta is    0.003973221401337
 Root      2 not converged, maximum delta is    0.004869197167888
 Root      3 not converged, maximum delta is    0.010794394162195
 Root      4 not converged, maximum delta is    0.014857863313195
 Root      5 not converged, maximum delta is    0.017417442045544
 Root      6 not converged, maximum delta is    0.051094880297711
 Root      7 not converged, maximum delta is    0.012533662553967
 New state      8 was old state      9
 Root      8 not converged, maximum delta is    0.109326267869865
 New state      9 was old state      8
 Root      9 not converged, maximum delta is    0.002377874119372
 Root     10 not converged, maximum delta is    0.149950554918189
 Root     11 not converged, maximum delta is    0.019095071806526
 New state     12 was old state     14
 Root     12 not converged, maximum delta is    0.372377003032995
 New state     13 was old state     12
 Root     13 not converged, maximum delta is    0.228781045200086
 New state     14 was old state     13
 Root     14 not converged, maximum delta is    0.033860413483479
 Root     15 not converged, maximum delta is    0.314112478762457
 Root     16 not converged, maximum delta is    0.043460537726647
 Root     17 not converged, maximum delta is    0.028455681196009
 Root     18 not converged, maximum delta is    0.035908077169690
 Root     19 not converged, maximum delta is    0.010852433749076
 Root     20 not converged, maximum delta is    0.021035691780500
 Excitation Energies [eV] at current iteration:
 Root      1 :     1.710136478973255   Change is   -0.000362347474201
 Root      2 :     1.784692265062808   Change is   -0.000787820713272
 Root      3 :     2.436223463053421   Change is   -0.004588497854942
 Root      4 :     2.622999571324651   Change is   -0.006301903737510
 Root      5 :     2.800318574029461   Change is   -0.004130140401845
 Root      6 :     2.920854758396864   Change is   -0.006000284146792
 Root      7 :     2.957993287899308   Change is   -0.002249120063341
 Root      8 :     3.012335204245940   Change is   -0.025450965165612
 Root      9 :     3.026104453216941   Change is   -0.000075368095923
 Root     10 :     3.040489021951764   Change is   -0.008521463315055
 Root     11 :     3.177883624169275   Change is   -0.011224961188068
 Root     12 :     3.286197942884633   Change is   -0.044459170415919
 Root     13 :     3.305631231690639   Change is   -0.014541787431328
 Root     14 :     3.316363595733971   Change is   -0.006980758293063
 Root     15 :     3.344877474714470   Change is   -0.015246355099430
 Root     16 :     3.402244861192516   Change is   -0.004267573781916
 Root     17 :     3.454833659951078   Change is   -0.005633769094236
 Root     18 :     3.489576968077658   Change is   -0.002950998060962
 Root     19 :     3.511831878740327   Change is   -0.003932694624184
 Root     20 :     3.553360579110134   Change is   -0.001659431184253
 Iteration     5 Dimension   240 NMult   200 NNew     40
 CISAX will form    40 AO SS matrices at one time.
 NMat=    40 NSing=    40 JSym2X= 0.
 Root      1 has converged.
 Root      2 has converged.
 Root      3 not converged, maximum delta is    0.003344126365106
 Root      4 not converged, maximum delta is    0.008988373768461
 Root      5 not converged, maximum delta is    0.005730296813833
 Root      6 not converged, maximum delta is    0.023044560126536
 Root      7 not converged, maximum delta is    0.003314931094243
 Root      8 not converged, maximum delta is    0.040326437551978
 Root      9 has converged.
 Root     10 not converged, maximum delta is    0.027146762774417
 Root     11 not converged, maximum delta is    0.006811850777589
 Root     12 not converged, maximum delta is    0.027075039415495
 Root     13 not converged, maximum delta is    0.024549702910937
 Root     14 not converged, maximum delta is    0.016603352781209
 Root     15 not converged, maximum delta is    0.011386723460914
 Root     16 not converged, maximum delta is    0.014988613597989
 Root     17 not converged, maximum delta is    0.043473753597534
 Root     18 not converged, maximum delta is    0.002842402307080
 Root     19 not converged, maximum delta is    0.004100234417941
 No map to state     20
 Excitation Energies [eV] at current iteration:
 Root      1 :     1.710108229814306   Change is   -0.000028249158950
 Root      2 :     1.784642794499757   Change is   -0.000049470563050
 Root      3 :     2.435272678883488   Change is   -0.000950784169934
 Root      4 :     2.621232652878280   Change is   -0.001766918446371
 Root      5 :     2.799555862495593   Change is   -0.000762711533867
 Root      6 :     2.919272842475437   Change is   -0.001581915921427
 Root      7 :     2.957650801032460   Change is   -0.000342486866848
 Root      8 :     3.003762605085147   Change is   -0.008572599160794
 Root      9 :     3.026095054392206   Change is   -0.000009398824735
 Root     10 :     3.038610025757944   Change is   -0.001878996193819
 Root     11 :     3.175958397950130   Change is   -0.001925226219144
 Root     12 :     3.280861510230636   Change is   -0.005336432653997
 Root     13 :     3.299845345039687   Change is   -0.005785886650953
 Root     14 :     3.314056509636142   Change is   -0.002307086097828
 Root     15 :     3.344441759831257   Change is   -0.000435714883213
 Root     16 :     3.401147695566232   Change is   -0.001097165626284
 Root     17 :     3.451743277367870   Change is   -0.003090382583208
 Root     18 :     3.489343804090895   Change is   -0.000233163986763
 Root     19 :     3.511220028020845   Change is   -0.000611850719482
 Root     20 :     3.532743742906322
 Iteration     6 Dimension   274 NMult   240 NNew     34
 CISAX will form    34 AO SS matrices at one time.
 NMat=    34 NSing=    34 JSym2X= 0.
 Root      1 has converged.
 Root      2 has converged.
 Root      3 not converged, maximum delta is    0.001265856234928
 Root      4 not converged, maximum delta is    0.002101229814657
 Root      5 not converged, maximum delta is    0.001416077457808
 Root      6 not converged, maximum delta is    0.006811711668940
 Root      7 not converged, maximum delta is    0.001102332836856
 Root      8 not converged, maximum delta is    0.012915141878873
 Root      9 has converged.
 Root     10 not converged, maximum delta is    0.007517606279139
 Root     11 not converged, maximum delta is    0.002686431953109
 Root     12 not converged, maximum delta is    0.002934014113097
 Root     13 not converged, maximum delta is    0.007953065188308
 Root     14 not converged, maximum delta is    0.010290572980762
 Root     15 has converged.
 Root     16 not converged, maximum delta is    0.012036621525307
 Root     17 not converged, maximum delta is    0.039554854671395
 Root     18 has converged.
 New state     19 was old state     20
 Root     19 not converged, maximum delta is    0.074811444752905
 New state     20 was old state     19
 Root     20 not converged, maximum delta is    0.008702765549566
 Excitation Energies [eV] at current iteration:
 Root      1 :     1.710103734482418   Change is   -0.000004495331888
 Root      2 :     1.784636987601933   Change is   -0.000005806897825
 Root      3 :     2.435132259203879   Change is   -0.000140419679608
 Root      4 :     2.621014394725768   Change is   -0.000218258152512
 Root      5 :     2.799460669504420   Change is   -0.000095192991174
 Root      6 :     2.918915633380088   Change is   -0.000357209095349
 Root      7 :     2.957609002599452   Change is   -0.000041798433008
 Root      8 :     3.001289786992756   Change is   -0.002472818092391
 Root      9 :     3.026094370122635   Change is   -0.000000684269571
 Root     10 :     3.038357588644872   Change is   -0.000252437113072
 Root     11 :     3.175712393626363   Change is   -0.000246004323767
 Root     12 :     3.280439611749689   Change is   -0.000421898480947
 Root     13 :     3.298829410961025   Change is   -0.001015934078661
 Root     14 :     3.313096986829302   Change is   -0.000959522806840
 Root     15 :     3.344402232538221   Change is   -0.000039527293036
 Root     16 :     3.400740110283855   Change is   -0.000407585282377
 Root     17 :     3.450156690440286   Change is   -0.001586586927583
 Root     18 :     3.489319833385589   Change is   -0.000023970705306
 Root     19 :     3.510967411387000   Change is   -0.021776331519322
 Root     20 :     3.511138568127845   Change is   -0.000081459893001
 Iteration     7 Dimension   304 NMult   274 NNew     30
 CISAX will form    30 AO SS matrices at one time.
 NMat=    30 NSing=    30 JSym2X= 0.
 Root      1 has converged.
 Root      2 has converged.
 Root      3 has converged.
 Root      4 has converged.
 Root      5 has converged.
 Root      6 not converged, maximum delta is    0.001110986699362
 Root      7 has converged.
 Root      8 not converged, maximum delta is    0.003191376910760
 Root      9 has converged.
 Root     10 not converged, maximum delta is    0.001584412447884
 Root     11 has converged.
 Root     12 has converged.
 Root     13 not converged, maximum delta is    0.001030730716842
 Root     14 not converged, maximum delta is    0.002474539584004
 Root     15 has converged.
 Root     16 not converged, maximum delta is    0.002834887431190
 Root     17 not converged, maximum delta is    0.011833473342858
 Root     18 has converged.
 Root     19 not converged, maximum delta is    0.024787765938831
 Root     20 not converged, maximum delta is    0.008336403219931
 Excitation Energies [eV] at current iteration:
 Root      1 :     1.710102592851677   Change is   -0.000001141630740
 Root      2 :     1.784635152200170   Change is   -0.000001835401762
 Root      3 :     2.435118224664339   Change is   -0.000014034539540
 Root      4 :     2.620998564277174   Change is   -0.000015830448594
 Root      5 :     2.799453497249244   Change is   -0.000007172255176
 Root      6 :     2.918861720677929   Change is   -0.000053912702158
 Root      7 :     2.957605826625496   Change is   -0.000003175973957
 Root      8 :     3.000887168687123   Change is   -0.000402618305633
 Root      9 :     3.026094316106211   Change is   -0.000000054016424
 Root     10 :     3.038324568184531   Change is   -0.000033020460341
 Root     11 :     3.175684789103969   Change is   -0.000027604522395
 Root     12 :     3.280400803277726   Change is   -0.000038808471963
 Root     13 :     3.298738215997945   Change is   -0.000091194963081
 Root     14 :     3.312902292712766   Change is   -0.000194694116535
 Root     15 :     3.344399271587751   Change is   -0.000002960950471
 Root     16 :     3.400651014017759   Change is   -0.000089096266096
 Root     17 :     3.449659394526858   Change is   -0.000497295913429
 Root     18 :     3.489318623662518   Change is   -0.000001209723071
 Root     19 :     3.506238301513697   Change is   -0.004729109873303
 Root     20 :     3.511129690907851   Change is   -0.000008877219993
 Iteration     8 Dimension   322 NMult   304 NNew     18
 CISAX will form    18 AO SS matrices at one time.
 NMat=    18 NSing=    18 JSym2X= 0.
 Root      1 has converged.
 Root      2 has converged.
 Root      3 has converged.
 Root      4 has converged.
 Root      5 has converged.
 Root      6 has converged.
 Root      7 has converged.
 Root      8 has converged.
 Root      9 has converged.
 Root     10 has converged.
 Root     11 has converged.
 Root     12 has converged.
 Root     13 has converged.
 Root     14 has converged.
 Root     15 has converged.
 Root     16 has converged.
 Root     17 not converged, maximum delta is    0.002280842421207
 Root     18 has converged.
 Root     19 not converged, maximum delta is    0.003447069272734
 Root     20 has converged.
 Excitation Energies [eV] at current iteration:
 Root      1 :     1.710102538075672   Change is   -0.000000054776005
 Root      2 :     1.784635009378037   Change is   -0.000000142822133
 Root      3 :     2.435117159257981   Change is   -0.000001065406357
 Root      4 :     2.620997941759326   Change is   -0.000000622517848
 Root      5 :     2.799453270482224   Change is   -0.000000226767020
 Root      6 :     2.918855686313727   Change is   -0.000006034364203
 Root      7 :     2.957605725955423   Change is   -0.000000100670072
 Root      8 :     3.000844691418769   Change is   -0.000042477268354
 Root      9 :     3.026094315611651   Change is   -0.000000000494561
 Root     10 :     3.038320512271309   Change is   -0.000004055913223
 Root     11 :     3.175682521618306   Change is   -0.000002267485662
 Root     12 :     3.280400674051821   Change is   -0.000000129225905
 Root     13 :     3.298731472514829   Change is   -0.000006743483115
 Root     14 :     3.312873707590880   Change is   -0.000028585121886
 Root     15 :     3.344399218795637   Change is   -0.000000052792113
 Root     16 :     3.400637384172154   Change is   -0.000013629845605
 Root     17 :     3.449575657106130   Change is   -0.000083737420728
 Root     18 :     3.489318598813424   Change is   -0.000000024849094
 Root     19 :     3.505478424606508   Change is   -0.000759876907189
 Root     20 :     3.511128627951233   Change is   -0.000001062956618
 Iteration     9 Dimension   326 NMult   322 NNew      4
 CISAX will form     4 AO SS matrices at one time.
 NMat=     4 NSing=     4 JSym2X= 0.
 Root      1 has converged.
 Root      2 has converged.
 Root      3 has converged.
 Root      4 has converged.
 Root      5 has converged.
 Root      6 has converged.
 Root      7 has converged.
 Root      8 has converged.
 Root      9 has converged.
 Root     10 has converged.
 Root     11 has converged.
 Root     12 has converged.
 Root     13 has converged.
 Root     14 has converged.
 Root     15 has converged.
 Root     16 has converged.
 Root     17 has converged.
 Root     18 has converged.
 Root     19 has converged.
 Root     20 has converged.
 Excitation Energies [eV] at current iteration:
 Root      1 :     1.710102492065201   Change is   -0.000000046010471
 Root      2 :     1.784634981234054   Change is   -0.000000028143983
 Root      3 :     2.435117127700997   Change is   -0.000000031556985
 Root      4 :     2.620997941676428   Change is   -0.000000000082898
 Root      5 :     2.799453270427017   Change is   -0.000000000055207
 Root      6 :     2.918855390493295   Change is   -0.000000295820432
 Root      7 :     2.957605725946835   Change is   -0.000000000008589
 Root      8 :     3.000842655882365   Change is   -0.000002035536404
 Root      9 :     3.026094315412414   Change is   -0.000000000199237
 Root     10 :     3.038320266634611   Change is   -0.000000245636698
 Root     11 :     3.175682486066032   Change is   -0.000000035552274
 Root     12 :     3.280400673424087   Change is   -0.000000000627733
 Root     13 :     3.298731472401763   Change is   -0.000000000113067
 Root     14 :     3.312871561352089   Change is   -0.000002146238792
 Root     15 :     3.344399218759037   Change is   -0.000000000036601
 Root     16 :     3.400636341475617   Change is   -0.000001042696537
 Root     17 :     3.449567922449637   Change is   -0.000007734656493
 Root     18 :     3.489318596890924   Change is   -0.000000001922500
 Root     19 :     3.505406988754882   Change is   -0.000071435851627
 Root     20 :     3.511128627933088   Change is   -0.000000000018145
 Convergence achieved on expansion vectors.
 ***********************************************************************
 Excited states from <AA,BB:AA,BB> singles matrix:
 ***********************************************************************
 
 ExtSpn:  IState=     1 X2= 1.019 Y2= 0.019 X2-Y2-1=-1.11D-15
          S2Grnd=  0.771 Ra=  0.131 Rb=  0.179 T=  0.280 S2Ext=  0.590 S2=  1.362
 ExtSpn:  IState=     2 X2= 1.046 Y2= 0.046 X2-Y2-1= 2.22D-16
          S2Grnd=  0.771 Ra=  0.370 Rb=  0.362 T=  0.720 S2Ext=  1.452 S2=  2.223
 ExtSpn:  IState=     3 X2= 1.010 Y2= 0.010 X2-Y2-1=-7.77D-16
[...]
  Beta virt. eigenvalues --    1.08239   1.09280   1.10428   1.10519   1.10759
  Beta virt. eigenvalues --    1.11530   1.12151   1.12339   1.13032   1.13399
  Beta virt. eigenvalues --    1.13550   1.14304   1.14841   1.15328   1.15534
  Beta virt. eigenvalues --    1.15554   1.15865   1.16074   1.16638   1.17879
  Beta virt. eigenvalues --    1.18630   1.19224   1.20194   1.20225   1.20769
  Beta virt. eigenvalues --    1.21503   1.21527   1.22798   1.23475   1.24951
  Beta virt. eigenvalues --    1.25165   1.26391   1.26534   1.27532   1.27942
  Beta virt. eigenvalues --    1.28951   1.29841   1.30499   1.30912   1.31157
  Beta virt. eigenvalues --    1.33046   1.33915   1.34775   1.35018   1.35252
  Beta virt. eigenvalues --    1.35519   1.35901   1.36782   1.37147   1.37602
  Beta virt. eigenvalues --    1.38000   1.38745   1.39729   1.39751   1.39800
  Beta virt. eigenvalues --    1.40388   1.40923   1.41217   1.41318   1.41722
  Beta virt. eigenvalues --    1.42096   1.42820   1.43091   1.43223   1.43638
  Beta virt. eigenvalues --    1.43943   1.44146   1.44180   1.45707   1.46365
  Beta virt. eigenvalues --    1.46523   1.47606   1.49589   1.51832   1.52693
  Beta virt. eigenvalues --    1.53250   1.53268   1.53503   1.53896   1.54329
  Beta virt. eigenvalues --    1.55118   1.55745   1.55806   1.58135   1.58756
  Beta virt. eigenvalues --    1.60131   1.60218   1.62665   1.65442   1.66480
  Beta virt. eigenvalues --    1.68823   1.70683   1.72376   1.73191   1.73345
  Beta virt. eigenvalues --    1.73472   1.73849   1.74498   1.75374   1.75578
  Beta virt. eigenvalues --    1.76533   1.77046   1.77850   1.80258   1.80290
  Beta virt. eigenvalues --    1.80680   1.81672   1.82175   1.82673   1.82967
  Beta virt. eigenvalues --    1.83009   1.83484   1.83759   1.86384   1.86938
  Beta virt. eigenvalues --    1.87127   1.87244   1.88018   1.88196   1.88958
  Beta virt. eigenvalues --    1.89031   1.89117   1.89692   1.89953   1.90896
  Beta virt. eigenvalues --    1.91273   1.91521   1.92876   1.93779   1.94060
  Beta virt. eigenvalues --    1.94446   1.94480   1.94618   1.94987   1.95211
  Beta virt. eigenvalues --    1.95530   1.96296   1.96720   1.98786   1.98984
  Beta virt. eigenvalues --    1.99680   1.99763   1.99876   2.00815   2.01240
  Beta virt. eigenvalues --    2.01619   2.01968   2.02394   2.02472   2.03508
  Beta virt. eigenvalues --    2.03933   2.05146   2.05667   2.06157   2.06722
  Beta virt. eigenvalues --    2.07368   2.07891   2.08252   2.08639   2.09075
  Beta virt. eigenvalues --    2.09306   2.11367   2.12285   2.14352   2.16170
  Beta virt. eigenvalues --    2.16741   2.17289   2.17576   2.19277   2.20983
  Beta virt. eigenvalues --    2.22119   2.22936   2.23251   2.23553   2.23745
  Beta virt. eigenvalues --    2.24391   2.24537   2.26167   2.26550   2.26697
  Beta virt. eigenvalues --    2.27122   2.27171   2.29238   2.29296   2.29636
  Beta virt. eigenvalues --    2.30402   2.30980   2.31229   2.32087   2.32891
  Beta virt. eigenvalues --    2.32992   2.34431   2.34923   2.35146   2.37646
  Beta virt. eigenvalues --    2.37717   2.38521   2.38601   2.39957   2.40890
  Beta virt. eigenvalues --    2.41610   2.41912   2.42081   2.43045   2.43472
  Beta virt. eigenvalues --    2.44145   2.44533   2.44879   2.45193   2.45620
  Beta virt. eigenvalues --    2.46543   2.47793   2.47865   2.48804   2.48849
  Beta virt. eigenvalues --    2.49452   2.49784   2.50177   2.50906   2.51706
  Beta virt. eigenvalues --    2.52208   2.52725   2.54215   2.55035   2.55909
  Beta virt. eigenvalues --    2.55990   2.56516   2.56698   2.57167   2.57419
  Beta virt. eigenvalues --    2.58143   2.58441   2.59083   2.59288   2.59318
  Beta virt. eigenvalues --    2.59419   2.59453   2.59788   2.60397   2.61025
  Beta virt. eigenvalues --    2.61027   2.62008   2.62743   2.63010   2.63576
  Beta virt. eigenvalues --    2.64868   2.65473   2.66785   2.67257   2.67642
  Beta virt. eigenvalues --    2.68616   2.69849   2.71103   2.72600   2.72957
  Beta virt. eigenvalues --    2.73594   2.73923   2.74360   2.75965   2.76876
  Beta virt. eigenvalues --    2.77522   2.78380   2.80936   2.81283   2.82894
  Beta virt. eigenvalues --    2.85195   2.85708   2.86095   2.86448   2.87469
  Beta virt. eigenvalues --    2.90893   2.91330   2.91344   2.93136   2.93712
  Beta virt. eigenvalues --    2.94555   2.94908   2.99457   3.00971   3.02616
  Beta virt. eigenvalues --    3.06462   3.09011   3.09654   3.11074   3.12535
  Beta virt. eigenvalues --    3.16094   3.16787   3.18006   3.18463   3.18793
  Beta virt. eigenvalues --    3.19009   3.20270   3.21079   3.21357   3.24235
  Beta virt. eigenvalues --    3.24378   3.24593   3.30717   3.32491   3.32889
  Beta virt. eigenvalues --    3.34736   3.34917   3.35726   3.35869   3.37877
  Beta virt. eigenvalues --    3.40925   3.47426   3.49329   3.50635   3.57528
  Beta virt. eigenvalues --    3.58110   3.60172   3.61724   3.81954   3.85548
  Beta virt. eigenvalues --    3.86152   4.06112   4.06358   4.06475   4.06615
  Beta virt. eigenvalues --    4.06859   4.09916   4.10147   4.10846   4.10966
  Beta virt. eigenvalues --    4.12731   4.13046   4.13937   4.15000   4.16068
  Beta virt. eigenvalues --    4.16475   4.16972   4.17342   4.22447   4.24324
  Beta virt. eigenvalues --    4.24750   4.25401   4.25974   4.27719   4.27870
  Beta virt. eigenvalues --    4.31467   4.31564   4.32076   4.33399   4.37463
  Beta virt. eigenvalues --    4.38266   4.38625   4.39867   4.41272   4.41343
  Beta virt. eigenvalues --    4.42061   4.43901   4.45019   4.46603   4.51356
  Beta virt. eigenvalues --    4.54027   4.56483   4.69611   4.70764   4.75169
  Beta virt. eigenvalues --    4.76776   4.85834   4.97317
          Condensed to atoms (all electrons):
          Atomic-Atomic Spin Densities.
 Mulliken charges and spin densities:
               1          2
     1  C    0.067728  -0.019328
     2  C   -0.118625   0.017216
     3  C   -0.102439  -0.008988
     4  C   -0.007631   0.017314
     5  C   -0.102439  -0.008988
     6  C   -0.118625   0.017216
     7  C    0.077608   0.098433
     8  C   -0.093837  -0.052780
     9  C   -0.133731   0.100904
    10  C    0.135325  -0.127247
    11  C   -0.133728   0.100903
    12  C   -0.093836  -0.052779
    13  H    0.096307  -0.000690
    14  H    0.101654   0.000362
    15  H    0.101654   0.000362
    16  H    0.096307  -0.000690
    17  H    0.117632   0.002563
    18  H    0.117632   0.002563
    19  C   -0.122907   0.748426
    20  C    0.133749  -0.120031
    21  C   -0.119973   0.095672
    22  C   -0.119136   0.095449
    23  C   -0.050252  -0.048479
    24  C   -0.050367  -0.048438
    25  C   -0.089925   0.086575
    26  H    0.136792   0.002330
    27  C    0.133796  -0.120058
    28  C   -0.119148   0.095483
    29  C   -0.119988   0.095707
    30  C   -0.050367  -0.048459
    31  C   -0.050252  -0.048499
    32  C   -0.089925   0.086612
    33  H    0.136379   0.002366
    34  H    0.136793   0.002330
    35  Cl   0.008897   0.007256
    36  Cl   0.022471   0.003215
    37  Cl   0.008901   0.007259
    38  Cl   0.022962   0.002882
    39  Cl   0.022476   0.003216
    40  Cl   0.011047   0.003371
    41  Cl   0.011049   0.003371
    42  C    0.097159   0.001193
    43  C    0.097159   0.001193
    44  C   -0.132044  -0.000392
    45  C    0.106618  -0.000581
    46  C    0.106618  -0.000581
    47  C   -0.132044  -0.000392
    48  C   -0.095257   0.000554
    49  H    0.097887  -0.000026
    50  C   -0.123562   0.000490
    51  C   -0.123562   0.000490
    52  H    0.097887  -0.000026
    53  C   -0.095257   0.000554
    54  C   -0.094633  -0.000425
    55  H    0.087177  -0.000022
    56  H    0.085505  -0.000015
    57  C   -0.094634  -0.000425
    58  H    0.085505  -0.000015
    59  H    0.087177  -0.000022
    60  H    0.087330   0.000017
    61  H    0.087330   0.000017
    62  C   -0.080216  -0.002232
    63  C   -0.205505   0.001565
    64  H    0.083992  -0.000067
    65  Cl   0.022961   0.002882
    66  H    0.136380   0.002366
 Sum of Mulliken charges =  -0.00000   1.00000
 Mulliken charges and spin densities with hydrogens summed into heavy atoms:
               1          2
     1  C    0.067728  -0.019328
     2  C   -0.022318   0.016526
     3  C   -0.000785  -0.008626
     4  C   -0.007631   0.017314
     5  C   -0.000785  -0.008626
     6  C   -0.022318   0.016526
     7  C    0.077608   0.098433
     8  C    0.023794  -0.050217
     9  C   -0.133731   0.100904
    10  C    0.135325  -0.127247
    11  C   -0.133728   0.100903
    12  C    0.023796  -0.050216
    19  C   -0.122907   0.748426
    20  C    0.133749  -0.120031
    21  C   -0.119973   0.095672
    22  C   -0.119136   0.095449
    23  C    0.086540  -0.046150
    24  C    0.086012  -0.046072
    25  C   -0.089925   0.086575
    27  C    0.133796  -0.120058
    28  C   -0.119148   0.095483
    29  C   -0.119988   0.095707
    30  C    0.086012  -0.046093
    31  C    0.086541  -0.046169
    32  C   -0.089925   0.086612
    35  Cl   0.008897   0.007256
    36  Cl   0.022471   0.003215
    37  Cl   0.008901   0.007259
    38  Cl   0.022962   0.002882
    39  Cl   0.022476   0.003216
    40  Cl   0.011047   0.003371
    41  Cl   0.011049   0.003371
    42  C    0.097159   0.001193
    43  C    0.097159   0.001193
    44  C   -0.034157  -0.000417
    45  C    0.106618  -0.000581
    46  C    0.106618  -0.000581
    47  C   -0.034157  -0.000417
    48  C   -0.008080   0.000532
    50  C   -0.038058   0.000474
    51  C   -0.038058   0.000474
    53  C   -0.008080   0.000532
    54  C   -0.007303  -0.000408
    57  C   -0.007303  -0.000408
    62  C   -0.080216  -0.002232
    63  C   -0.121513   0.001498
    65  Cl   0.022961   0.002882
 Electronic spatial extent (au):  <R**2>=          53592.3635
 Charge=             -0.0000 electrons
 Dipole moment (field-independent basis, Debye):
    X=             -2.8558    Y=              0.0001    Z=              0.0000  Tot=              2.8558
 Quadrupole moment (field-independent basis, Debye-Ang):
   XX=           -298.2538   YY=           -313.1394   ZZ=           -319.5244
   XY=              0.0003   XZ=              0.0001   YZ=              5.8541
 Traceless Quadrupole moment (field-independent basis, Debye-Ang):
   XX=             12.0521   YY=             -2.8335   ZZ=             -9.2185
   XY=              0.0003   XZ=              0.0001   YZ=              5.8541
 Octapole moment (field-independent basis, Debye-Ang**2):
  XXX=           -168.3828  YYY=              0.0041  ZZZ=              0.0022  XYY=              2.2442
  XXY=              0.0023  XXZ=             -0.0002  XZZ=             26.0439  YZZ=             -0.0011
  YYZ=             -0.0020  XYZ=            -54.9871
 Hexadecapole moment (field-independent basis, Debye-Ang**3):
 XXXX=         -54407.1719 YYYY=         -10051.1212 ZZZZ=          -4567.4991 XXXY=              0.0269
 XXXZ=             -0.0225 YYYX=              0.0008 YYYZ=            150.2678 ZZZX=              0.0187
 ZZZY=             43.8466 XXYY=         -11368.2228 XXZZ=         -10360.2444 YYZZ=          -2336.7930
 XXYZ=            493.6073 YYXZ=             -0.0140 ZZXY=             -0.0156
 N-N= 7.137595700747D+03 E-N=-2.649092365257D+04  KE= 5.153607588564D+03
 Leave Link  601 at Mon Oct  6 17:05:32 2025, MaxMem=  7516192768 cpu:              25.8 elap:               1.6
 (Enter /share/apps/softwares/gaussian/16/g16/l9999.exe)
 Electronic transition elements 
                 1             2             3             4             5 
      1  -0.517933D+04 -0.517933D+04 -0.517931D+04 -0.517930D+04 -0.517929D+04
      2  -0.573063D+00  0.380049D+00 -0.981620D+00  0.136201D-03 -0.689487D-05
      3   0.134576D-05 -0.308050D-04  0.130267D-03  0.485327D+00 -0.206995D+00
      4  -0.689102D-05 -0.167800D-05 -0.891352D-05 -0.755563D-01  0.248716D+00
      5   0.353533D-01 -0.245037D-01  0.886893D-01 -0.131241D-04  0.000000D+00
      6  -0.100444D-05  0.000000D+00 -0.119509D-04 -0.475525D-01  0.236141D-01
      7   0.000000D+00  0.000000D+00  0.000000D+00  0.684211D-02 -0.292092D-01
      8   0.693189D-02 -0.478049D-02  0.266379D-01 -0.185342D-04  0.132539D-03
      9   0.544219D-05 -0.402607D-05 -0.205430D-04 -0.185904D+00 -0.173817D+00
     10  -0.621440D-05  0.201701D-04 -0.116500D-03 -0.346768D+00 -0.101577D+00
     11  -0.267463D+00  0.183945D+00  0.397865D-01  0.627086D-05 -0.645932D-04
     12   0.275497D-01 -0.197020D-01  0.228259D+00 -0.458279D-04  0.973161D-04
     13  -0.823131D-02  0.580252D-02 -0.294723D-01 -0.112801D-04 -0.159320D-04
     14  -0.491243D-05  0.172323D-04 -0.982922D-04 -0.528932D+00  0.165027D+00
     15  -0.257573D-05 -0.348526D-05  0.309535D-04  0.217270D+00 -0.144773D+00
     16  -0.243185D-01  0.169303D-01  0.133571D-01  0.378390D-05  0.214436D-04
                 6             7             8             9            10 
      1  -0.517929D+04 -0.517929D+04 -0.517929D+04 -0.517928D+04 -0.517928D+04
      2   0.365071D+00  0.203818D-03  0.943601D+00  0.333712D-04 -0.243197D+01
      3  -0.113790D-03  0.110905D+00 -0.110681D-03 -0.325740D-01  0.400061D-04
      4  -0.500334D-05  0.195126D+00  0.683967D-04 -0.225783D-01  0.141968D-04
      5  -0.380626D-01 -0.225328D-04 -0.102521D+00 -0.319324D-05  0.277665D+00
      6   0.131303D-04 -0.152079D-01  0.209045D-04  0.363084D-02 -0.618440D-05
      7   0.000000D+00 -0.242719D-01 -0.825946D-05  0.205087D-02 -0.196962D-05
      8  -0.315049D+00 -0.139015D-03 -0.140643D+00 -0.132144D-05 -0.199466D+00
      9  -0.173336D-03  0.312029D+00  0.481854D-04  0.536313D-01  0.558355D-04
     10   0.267371D-03 -0.518036D+00 -0.359229D-04 -0.855174D-01  0.262603D-05
     11   0.157999D+00 -0.533991D-04  0.107202D+01  0.168588D-04 -0.142711D+01
     12  -0.344570D+00 -0.152489D-03 -0.115151D-01 -0.899651D-05  0.420247D+00
     13   0.685745D-01  0.285365D-04  0.576655D-02  0.159784D-05 -0.395727D-01
     14   0.678547D-04 -0.586393D-01  0.237445D-04 -0.497649D-01 -0.580159D-05
     15   0.651715D-04 -0.235435D+00 -0.100788D-03 -0.360345D-01 -0.337578D-04
     16  -0.345824D-01 -0.108674D-04 -0.127484D-02 -0.312839D-05 -0.160627D+00
                11            12            13            14            15 
      1  -0.517928D+04 -0.517928D+04 -0.517927D+04 -0.517927D+04 -0.517927D+04
      2  -0.520070D+00 -0.150140D-04  0.727609D-03  0.705968D+00 -0.364433D-04
      3  -0.489356D-04 -0.756367D-01  0.140836D+01 -0.167903D-02  0.169516D+00
      4  -0.132429D-04  0.121790D-01 -0.343123D+00  0.398214D-03 -0.753930D-01
      5   0.737348D-01  0.399112D-05 -0.856469D-04 -0.836992D-01  0.335570D-05
      6   0.581172D-05  0.890567D-02 -0.173388D+00  0.212591D-03 -0.216243D-01
      7   0.172203D-05 -0.128073D-02  0.419600D-01 -0.502956D-04  0.989825D-02
      8   0.943251D-01 -0.112561D-04  0.364044D-04  0.553185D-01 -0.312388D-05
      9   0.173437D-04  0.276327D-01 -0.100587D+00  0.916247D-04  0.920955D-01
     10  -0.273929D-04  0.904289D-01 -0.118879D+01  0.132056D-02 -0.386376D-01
     11  -0.407464D+01  0.127392D-03 -0.446532D-03 -0.566890D+00  0.280873D-04
     12  -0.196040D+00 -0.207056D-04 -0.294362D-03 -0.311557D+00  0.255198D-04
     13  -0.174785D-01 -0.922745D-05 -0.385619D-04  0.137314D-01  0.000000D+00
     14  -0.119949D-04  0.111600D+00 -0.175959D+01  0.200829D-02 -0.164484D+00
     15  -0.261282D-04 -0.450358D-01  0.563414D+00 -0.633434D-03 -0.481698D-04
     16  -0.931459D-01 -0.187749D-04  0.383317D-04  0.474471D-01  0.224310D-05
                16            17            18            19            20 
      1  -0.517927D+04 -0.517927D+04 -0.517927D+04 -0.517927D+04 -0.517927D+04
      2  -0.428982D+00 -0.187836D+00  0.180394D-05 -0.666694D-01 -0.105458D-03
      3   0.148885D-03  0.863384D-04  0.896010D-02  0.657952D-04 -0.116630D+00
      4  -0.359276D-04 -0.240580D-04  0.991173D-02  0.101983D-03 -0.311382D+00
      5   0.478395D-01  0.287738D-01  0.000000D+00  0.179110D-01  0.164376D-04
      6  -0.206341D-04 -0.125473D-04 -0.116978D-02 -0.220029D-04  0.175995D-01
      7   0.547638D-05  0.581960D-05 -0.151369D-02 -0.227614D-04  0.510554D-01
      8   0.140462D-01 -0.341560D-01  0.122399D-04 -0.751912D-01 -0.102532D-03
      9   0.618634D-05  0.270640D-04 -0.598990D-03  0.306336D-04 -0.315181D+00
     10  -0.815095D-04  0.251798D-05 -0.111662D-01 -0.136441D-03  0.771453D+00
     11   0.618425D+00 -0.695508D+00 -0.116566D-03  0.493170D+00  0.393490D-03
     12   0.135087D+00  0.914408D-01  0.300764D-04  0.148380D+00  0.310991D-05
     13  -0.138654D-01  0.298452D-01  0.221410D-05 -0.440816D-01 -0.161398D-05
     14  -0.152239D-03 -0.639960D-04 -0.108477D-02  0.124980D-03  0.931930D-01
     15   0.467088D-04 -0.266356D-04 -0.218281D-02 -0.133346D-04  0.381969D+00
     16  -0.664500D-01  0.167135D-01  0.258368D-04  0.923901D-01  0.316633D-05
 Unable to Open any file for archive entry.
 1\1\GINC-CN99116\SP\UB3LYP TD-FC\6-31G(d,p)\C39H19Cl8(2)\KAE\06-Oct-20
 25\0\\#p TD(nstates=20) Ub3lyp/6-31g(d,p) em=gd3bj\\molecule\\0,2\C,0,
 -2.560382,0.00005,0.00004\C,0,-3.281146,1.084511,-0.524456\C,0,-4.6719
 14,1.083479,-0.523672\C,0,-5.390973,0.000027,0.000014\C,0,-4.671906,-1
 .083413,0.523714\C,0,-3.281138,-1.084422,0.524523\C,0,-1.082983,0.0000
 57,0.000048\C,0,-0.361588,0.589841,-1.04643\C,0,1.024515,0.585781,-1.0
 39386\C,0,1.788555,0.000045,0.000045\C,0,1.024507,-0.585676,1.039481\C
 ,0,-0.361593,-0.589727,1.04653\H,0,-2.74723,1.946068,-0.912298\H,0,-5.
 214836,1.932467,-0.926452\H,0,-5.214822,-1.93241,0.926484\H,0,-2.74721
 6,-1.945972,0.912374\H,0,-0.880667,1.013098,-1.897041\H,0,-0.880674,-1
 .012988,1.897137\C,0,3.250407,-0.000016,0.000026\C,0,3.985089,1.232764
 ,-0.298243\C,0,5.05403,1.274749,-1.225311\C,0,3.676649,2.46709,0.32307
 2\C,0,5.761746,2.435113,-1.51438\C,0,4.362615,3.644424,0.050801\C,0,5.
 404907,3.614929,-0.869861\H,0,6.56047,2.419872,-2.243877\C,0,3.985085,
 -1.232793,0.29823\C,0,3.676467,-2.467169,-0.32289\C,0,5.054217,-1.2747
 38,1.225096\C,0,4.36245,-3.644501,-0.050653\C,0,5.761959,-2.435096,1.5
 14112\C,0,5.404949,-3.614962,0.869777\H,0,4.100133,-4.560022,-0.563842
 \H,0,6.560834,-2.419815,2.243443\Cl,0,6.281629,5.086318,-1.222932\Cl,0
 ,5.489391,-0.146199,-2.152675\Cl,0,6.281702,-5.086343,1.222796\Cl,0,2.
 447992,-2.559849,-1.568092\Cl,0,5.489809,0.146257,2.152286\Cl,0,1.8124
 45,-1.248324,2.46114\Cl,0,1.812439,1.248365,-2.461083\C,0,-7.581984,-0
 .876564,-0.85765\C,0,-7.582022,0.876574,0.857629\C,0,-6.91876,-1.76098
 ,-1.766425\C,0,-9.026078,-0.87657,-0.847875\C,0,-9.026115,0.876549,0.8
 47822\C,0,-6.918837,1.761005,1.766418\C,0,-7.628116,-2.599867,-2.58425
 8\H,0,-5.836071,-1.754612,-1.804272\C,0,-9.726476,-1.770145,-1.7151\C,
 0,-9.726552,1.770108,1.715031\H,0,-5.836148,1.75466,1.804289\C,0,-7.62
 8229,2.599876,2.584236\C,0,-9.05136,-2.611354,-2.556581\H,0,-7.102333,
 -3.260816,-3.266411\H,0,-10.812589,-1.762559,-1.691771\C,0,-9.051473,2
 .611331,2.556528\H,0,-10.812664,1.762499,1.691678\H,0,-7.102475,3.2608
 36,3.2664\H,0,-9.595644,-3.284973,-3.211054\H,0,-9.595786,3.284939,3.2
 10989\C,0,-6.880216,0.000012,-0.000003\C,0,-9.707346,-0.000018,-0.0000
 34\H,0,-10.794401,-0.00003,-0.000046\Cl,0,2.448472,2.55966,1.568579\H,
 0,4.100448,4.559909,0.564138\\Version=ES64L-G16RevC.01\State=2-A\HF=-5
 179.3956726\S2=0.771317\S2-1=0.\S2A=0.750418\RMSD=6.606e-09\PG=C01 [X(
 C39H19Cl8)]\\@
 The archive entry for this job was punched.


 Some scientists claim that hydrogen, because it is so
 plentiful, is the basic building block of the universe. 
 I dispute that. I say that stupidity is far more
 abundant than hydrogen, and THAT is the basic building 
 block of the universe.
                   --Frank Zappa
 Job cpu time:       1 days  1 hours 27 minutes 52.5 seconds.
 Elapsed time:       0 days  1 hours  3 minutes 44.9 seconds.
 File lengths (MBytes):  RWF=   7710 Int=      0 D2E=      0 Chk=    561 Scr=      2
 Normal termination of Gaussian 16 at Mon Oct  6 17:05:45 2025.
