 Entering Gaussian System, Link 0=g16
 Input=molecule.gjf
 Output=molecule.log
 Initial command:
 /share/apps/softwares/gaussian/16/g16/l1.exe "/share/home/kae/gaussian/corrtectedOI/ttmalt_250613_b3lyp/Gau-18009.inp" -scrdir="/share/home/kae/gaussian/corrtectedOI/ttmalt_250613_b3lyp/"
 Entering Link 1 = /share/apps/softwares/gaussian/16/g16/l1.exe PID=     18013.
  
 Copyright (c) 1988-2019, Gaussian, Inc.  All Rights Reserved.
  
 This is part of the Gaussian(R) 16 program.  It is based on
 the Gaussian(R) 09 system (copyright 2009, Gaussian, Inc.),
 the Gaussian(R) 03 system (copyright 2003, Gaussian, Inc.),
 the Gaussian(R) 98 system (copyright 1998, Gaussian, Inc.),
 the Gaussian(R) 94 system (copyright 1995, Gaussian, Inc.),
 the Gaussian 92(TM) system (copyright 1992, Gaussian, Inc.),
 the Gaussian 90(TM) system (copyright 1990, Gaussian, Inc.),
 the Gaussian 88(TM) system (copyright 1988, Gaussian, Inc.),
 the Gaussian 86(TM) system (copyright 1986, Carnegie Mellon
 University), and the Gaussian 82(TM) system (copyright 1983,
 Carnegie Mellon University). Gaussian is a federally registered
 trademark of Gaussian, Inc.
  
 This software contains proprietary and confidential information,
 including trade secrets, belonging to Gaussian, Inc.
  
 This software is provided under written license and may be
 used, copied, transmitted, or stored only in accord with that
 written license.
  
 The following legend is applicable only to US Government
 contracts under FAR:
  
                    RESTRICTED RIGHTS LEGEND
  
 Use, reproduction and disclosure by the US Government is
 subject to restrictions as set forth in subparagraphs (a)
 and (c) of the Commercial Computer Software - Restricted
 Rights clause in FAR 52.227-19.
  
 Gaussian, Inc.
 340 Quinnipiac St., Bldg. 40, Wallingford CT 06492
  
  
 ---------------------------------------------------------------
 Warning -- This program may not be used in any manner that
 competes with the business of Gaussian, Inc. or will provide
 assistance to any competitor of Gaussian, Inc.  The licensee
 of this program is prohibited from giving any competitor of
 Gaussian, Inc. access to this program.  By using this program,
 the user acknowledges that Gaussian, Inc. is engaged in the
 business of creating and licensing software in the field of
 computational chemistry and represents and warrants to the
 licensee that it is not a competitor of Gaussian, Inc. and that
 it will not use this program in any manner prohibited above.
 ---------------------------------------------------------------
  

 Cite this work as:
 Gaussian 16, Revision C.01,
 M. J. Frisch, G. W. Trucks, H. B. Schlegel, G. E. Scuseria, 
 M. A. Robb, J. R. Cheeseman, G. Scalmani, V. Barone, 
 G. A. Petersson, H. Nakatsuji, X. Li, M. Caricato, A. V. Marenich, 
 J. Bloino, B. G. Janesko, R. Gomperts, B. Mennucci, H. P. Hratchian, 
 J. V. Ortiz, A. F. Izmaylov, J. L. Sonnenberg, D. Williams-Young, 
 F. Ding, F. Lipparini, F. Egidi, J. Goings, B. Peng, A. Petrone, 
 T. Henderson, D. Ranasinghe, V. G. Zakrzewski, J. Gao, N. Rega, 
 G. Zheng, W. Liang, M. Hada, M. Ehara, K. Toyota, R. Fukuda, 
 J. Hasegawa, M. Ishida, T. Nakajima, Y. Honda, O. Kitao, H. Nakai, 
 T. Vreven, K. Throssell, J. A. Montgomery, Jr., J. E. Peralta, 
 F. Ogliaro, M. J. Bearpark, J. J. Heyd, E. N. Brothers, K. N. Kudin, 
 V. N. Staroverov, T. A. Keith, R. Kobayashi, J. Normand, 
 K. Raghavachari, A. P. Rendell, J. C. Burant, S. S. Iyengar, 
 J. Tomasi, M. Cossi, J. M. Millam, M. Klene, C. Adamo, R. Cammi, 
 J. W. Ochterski, R. L. Martin, K. Morokuma, O. Farkas, 
 J. B. Foresman, and D. J. Fox, Gaussian, Inc., Wallingford CT, 2019.
 
 ******************************************
 Gaussian 16:  ES64L-G16RevC.01  3-Jul-2019
                13-Jun-2025 
 ******************************************
 %mem=56GB
 %nprocshared=24
 Will use up to   24 processors via shared memory.
 %chk=molecule.chk
 -----------------------------------------------
 #p opt=recalc=5 freq Ub3lyp/6-31g(d,p) em=gd3bj
 -----------------------------------------------
 1/10=4,18=20,19=15,26=3,38=1,71=5/1,3;
 2/9=110,12=2,17=6,18=5,40=1/2;
 3/5=1,6=6,7=101,11=2,25=1,30=1,71=2,74=-5,116=2,124=41,140=1/1,2,3;
 4//1;
 5/5=2,38=5/2;
 8/6=4,10=90,11=11/1;
 11/6=1,8=1,9=11,15=111,16=1/1,2,10;
 10/6=1,13=1/2;
 6/7=2,8=2,9=2,10=2,28=1/1;
 7/10=1,25=1/1,2,3,16;
 1/10=4,18=20,19=15,26=3,71=5/3(3);
 2/9=110/2;
 7/9=1,25=1,44=-1/16;
 99//99;
 2/9=110/2;
 3/5=1,6=6,7=101,11=2,25=1,30=1,71=2,74=-5,116=2,124=41,140=1/1,2,3;
 4/5=5,16=3,69=1/1;
 5/5=2,38=5/2;
 8/6=4,10=90,11=11/1;
 11/6=1,8=1,9=11,15=111,16=1/1,2,10;
 10/6=1,13=1/2;
 7/10=1,25=1/1,2,3,16;
 1/18=20,19=15,26=3,71=5/3(-8);
 2/9=110/2;
 6/7=2,8=2,9=2,10=2,19=2,28=1/1;
 7/9=1,25=1,44=-1/16;
 99/9=1/99;
 Leave Link    1 at Fri Jun 13 10:52:08 2025, MaxMem=  7516192768 cpu:               2.4 elap:               0.2
 (Enter /share/apps/softwares/gaussian/16/g16/l101.exe)
 --------
 molecule
 --------
 Symbolic Z-matrix:
 Charge =  0 Multiplicity = 2
 C                     2.5751   -0.08147  -0.00593 
 C                     3.28203   0.96974   0.59852 
 C                     4.67264   0.99199   0.58833 
 C                     5.40473  -0.03425  -0.02477 
 C                     4.69915  -1.08462  -0.6281 
 C                     3.30858  -1.10886  -0.61966 
 C                     1.09734  -0.10605   0.00384 
 C                     0.37615   0.38278   1.10234 
 C                    -1.00988   0.35563   1.10487 
 C                    -1.77121  -0.15647   0.02489 
 C                    -1.00992  -0.63854  -1.06468 
 C                     0.37809  -0.61821  -1.08323 
 H                     2.73762   1.78865   1.05765 
 H                     5.205     1.81514   1.05388 
 H                     5.25247  -1.88978  -1.10062 
 H                     2.7855   -1.94586  -1.07089 
 H                     0.89637   0.74301   1.98086 
 H                     0.89681  -0.96304  -1.96878 
 C                    -3.23998  -0.18574   0.04837 
 C                    -3.94708   1.05399   0.31256 
 C                    -5.17637   1.16022   1.00635 
 C                    -3.37631   2.2622   -0.14339 
 C                    -5.79635   2.38716   1.20046 
 C                    -3.98493   3.49188   0.04706 
 C                    -5.21374   3.5597    0.71971 
 H                    -6.73028   2.43969   1.745 
 C                    -3.94496  -1.4319   -0.26883 
 C                    -3.62786  -2.65703   0.36191 
 C                    -4.97403  -1.50022  -1.23874 
 C                    -4.27275  -3.85255   0.06529 
 C                    -5.63914  -2.67784  -1.55478 
 C                    -5.27852  -3.8486   -0.89481 
 H                    -4.00576  -4.76146   0.58771 
 H                    -6.41037  -2.68272  -2.3134 
 Cl                   -6.02894   5.07286   0.98642 
 Cl                   -5.94172  -0.23226   1.7417 
 Cl                   -6.10408  -5.34116  -1.28107 
 Cl                   -2.43626  -2.71497   1.64441 
 Cl                   -5.42001  -0.08536  -2.17001 
 Cl                   -1.80764  -1.21619  -2.51821 
 Cl                   -1.80685   0.88476   2.57476 
 C                     7.61639  -0.93791   0.74722 
 C                     7.574     0.94323  -0.82631 
 C                     6.97505  -1.90146   1.58877 
 C                     9.06016  -0.91271   0.7277 
 C                     9.01793   0.96685  -0.82623 
 C                     6.88922   1.88445  -1.65884 
 C                     7.70463  -2.78927   2.33393 
 H                     5.89274  -1.9164    1.63451 
 C                     9.78204  -1.85904   1.51789 
 C                     9.69672   1.93694  -1.62577 
 H                     5.80651   1.86291  -1.68991 
 C                     7.57827   2.79631  -2.41347 
 C                     9.1276   -2.77447   2.29583 
 H                     7.19527  -3.51009   2.96606 
 H                     10.86765  -1.83126   1.4879 
 C                     9.0013    2.82962  -2.39453 
 H                     10.78296   1.94593  -1.61033 
 H                     7.03637   3.49952  -3.03834 
 H                     9.68806  -3.48763   2.89214 
 H                     9.52926   3.5613   -2.99803 
 C                     6.89377  -0.00922  -0.03484 
 C                     9.72011   0.03858  -0.05386 
 H                     10.80697   0.05698  -0.06115 
 Cl                   -1.8545    2.19683  -1.02511 
 H                    -3.50794   4.37145  -0.33207 
 
 ITRead=  0  0  0  0  0  0  0  0  0  0  0  0  0  0  0  0  0  0  0  0
 ITRead=  0  0  0  0  0  0  0  0  0  0  0  0  0  0  0  0  0  0  0  0
 ITRead=  0  0  0  0  0  0  0  0  0  0  0  0  0  0  0  0  0  0  0  0
 ITRead=  0  0  0  0  0  0
 MicOpt= -1 -1 -1 -1 -1 -1 -1 -1 -1 -1 -1 -1 -1 -1 -1 -1 -1 -1 -1 -1
 MicOpt= -1 -1 -1 -1 -1 -1 -1 -1 -1 -1 -1 -1 -1 -1 -1 -1 -1 -1 -1 -1
 MicOpt= -1 -1 -1 -1 -1 -1 -1 -1 -1 -1 -1 -1 -1 -1 -1 -1 -1 -1 -1 -1
 MicOpt= -1 -1 -1 -1 -1 -1
 NAtoms=     66 NQM=       66 NQMF=       0 NMMI=      0 NMMIF=      0
                NMic=       0 NMicF=      0.
                    Isotopes and Nuclear Properties:
 (Nuclear quadrupole moments (NQMom) in fm**2, nuclear magnetic moments (NMagM)
  in nuclear magnetons)

  Atom         1           2           3           4           5           6           7           8           9          10
 IAtWgt=          12          12          12          12          12          12          12          12          12          12
 AtmWgt=  12.0000000  12.0000000  12.0000000  12.0000000  12.0000000  12.0000000  12.0000000  12.0000000  12.0000000  12.0000000
 NucSpn=           0           0           0           0           0           0           0           0           0           0
 AtZEff=  -0.0000000  -0.0000000  -0.0000000  -0.0000000  -0.0000000  -0.0000000  -0.0000000  -0.0000000  -0.0000000  -0.0000000
 NQMom=    0.0000000   0.0000000   0.0000000   0.0000000   0.0000000   0.0000000   0.0000000   0.0000000   0.0000000   0.0000000
 NMagM=    0.0000000   0.0000000   0.0000000   0.0000000   0.0000000   0.0000000   0.0000000   0.0000000   0.0000000   0.0000000
 AtZNuc=   6.0000000   6.0000000   6.0000000   6.0000000   6.0000000   6.0000000   6.0000000   6.0000000   6.0000000   6.0000000

  Atom        11          12          13          14          15          16          17          18          19          20
 IAtWgt=          12          12           1           1           1           1           1           1          12          12
 AtmWgt=  12.0000000  12.0000000   1.0078250   1.0078250   1.0078250   1.0078250   1.0078250   1.0078250  12.0000000  12.0000000
 NucSpn=           0           0           1           1           1           1           1           1           0           0
 AtZEff=  -0.0000000  -0.0000000  -0.0000000  -0.0000000  -0.0000000  -0.0000000  -0.0000000  -0.0000000  -0.0000000  -0.0000000
 NQMom=    0.0000000   0.0000000   0.0000000   0.0000000   0.0000000   0.0000000   0.0000000   0.0000000   0.0000000   0.0000000
 NMagM=    0.0000000   0.0000000   2.7928460   2.7928460   2.7928460   2.7928460   2.7928460   2.7928460   0.0000000   0.0000000
 AtZNuc=   6.0000000   6.0000000   1.0000000   1.0000000   1.0000000   1.0000000   1.0000000   1.0000000   6.0000000   6.0000000

  Atom        21          22          23          24          25          26          27          28          29          30
 IAtWgt=          12          12          12          12          12           1          12          12          12          12
 AtmWgt=  12.0000000  12.0000000  12.0000000  12.0000000  12.0000000   1.0078250  12.0000000  12.0000000  12.0000000  12.0000000
 NucSpn=           0           0           0           0           0           1           0           0           0           0
 AtZEff=  -0.0000000  -0.0000000  -0.0000000  -0.0000000  -0.0000000  -0.0000000  -0.0000000  -0.0000000  -0.0000000  -0.0000000
 NQMom=    0.0000000   0.0000000   0.0000000   0.0000000   0.0000000   0.0000000   0.0000000   0.0000000   0.0000000   0.0000000
 NMagM=    0.0000000   0.0000000   0.0000000   0.0000000   0.0000000   2.7928460   0.0000000   0.0000000   0.0000000   0.0000000
 AtZNuc=   6.0000000   6.0000000   6.0000000   6.0000000   6.0000000   1.0000000   6.0000000   6.0000000   6.0000000   6.0000000

  Atom        31          32          33          34          35          36          37          38          39          40
 IAtWgt=          12          12           1           1          35          35          35          35          35          35
 AtmWgt=  12.0000000  12.0000000   1.0078250   1.0078250  34.9688527  34.9688527  34.9688527  34.9688527  34.9688527  34.9688527
 NucSpn=           0           0           1           1           3           3           3           3           3           3
 AtZEff=  -0.0000000  -0.0000000  -0.0000000  -0.0000000  -0.0000000  -0.0000000  -0.0000000  -0.0000000  -0.0000000  -0.0000000
 NQMom=    0.0000000   0.0000000   0.0000000   0.0000000  -8.1650000  -8.1650000  -8.1650000  -8.1650000  -8.1650000  -8.1650000
 NMagM=    0.0000000   0.0000000   2.7928460   2.7928460   0.8218740   0.8218740   0.8218740   0.8218740   0.8218740   0.8218740
 AtZNuc=   6.0000000   6.0000000   1.0000000   1.0000000  17.0000000  17.0000000  17.0000000  17.0000000  17.0000000  17.0000000

  Atom        41          42          43          44          45          46          47          48          49          50
 IAtWgt=          35          12          12          12          12          12          12          12           1          12
 AtmWgt=  34.9688527  12.0000000  12.0000000  12.0000000  12.0000000  12.0000000  12.0000000  12.0000000   1.0078250  12.0000000
 NucSpn=           3           0           0           0           0           0           0           0           1           0
 AtZEff=  -0.0000000  -0.0000000  -0.0000000  -0.0000000  -0.0000000  -0.0000000  -0.0000000  -0.0000000  -0.0000000  -0.0000000
 NQMom=   -8.1650000   0.0000000   0.0000000   0.0000000   0.0000000   0.0000000   0.0000000   0.0000000   0.0000000   0.0000000
 NMagM=    0.8218740   0.0000000   0.0000000   0.0000000   0.0000000   0.0000000   0.0000000   0.0000000   2.7928460   0.0000000
 AtZNuc=  17.0000000   6.0000000   6.0000000   6.0000000   6.0000000   6.0000000   6.0000000   6.0000000   1.0000000   6.0000000

  Atom        51          52          53          54          55          56          57          58          59          60
 IAtWgt=          12           1          12          12           1           1          12           1           1           1
 AtmWgt=  12.0000000   1.0078250  12.0000000  12.0000000   1.0078250   1.0078250  12.0000000   1.0078250   1.0078250   1.0078250
 NucSpn=           0           1           0           0           1           1           0           1           1           1
 AtZEff=  -0.0000000  -0.0000000  -0.0000000  -0.0000000  -0.0000000  -0.0000000  -0.0000000  -0.0000000  -0.0000000  -0.0000000
 NQMom=    0.0000000   0.0000000   0.0000000   0.0000000   0.0000000   0.0000000   0.0000000   0.0000000   0.0000000   0.0000000
 NMagM=    0.0000000   2.7928460   0.0000000   0.0000000   2.7928460   2.7928460   0.0000000   2.7928460   2.7928460   2.7928460
 AtZNuc=   6.0000000   1.0000000   6.0000000   6.0000000   1.0000000   1.0000000   6.0000000   1.0000000   1.0000000   1.0000000

  Atom        61          62          63          64          65          66
 IAtWgt=           1          12          12           1          35           1
 AtmWgt=   1.0078250  12.0000000  12.0000000   1.0078250  34.9688527   1.0078250
 NucSpn=           1           0           0           1           3           1
 AtZEff=  -0.0000000  -0.0000000  -0.0000000  -0.0000000  -0.0000000  -0.0000000
 NQMom=    0.0000000   0.0000000   0.0000000   0.0000000  -8.1650000   0.0000000
 NMagM=    2.7928460   0.0000000   0.0000000   2.7928460   0.8218740   2.7928460
 AtZNuc=   1.0000000   6.0000000   6.0000000   1.0000000  17.0000000   1.0000000
 Leave Link  101 at Fri Jun 13 10:52:09 2025, MaxMem=  7516192768 cpu:              10.0 elap:               0.5
 (Enter /share/apps/softwares/gaussian/16/g16/l103.exe)

 GradGradGradGradGradGradGradGradGradGradGradGradGradGradGradGradGradGrad
 Berny optimization.
 Initialization pass.
                           ----------------------------
                           !    Initial Parameters    !
                           ! (Angstroms and Degrees)  !
 --------------------------                            --------------------------
 ! Name  Definition              Value          Derivative Info.                !
 --------------------------------------------------------------------------------
 ! R1    R(1,2)                  1.4036         calculate D2E/DX2 analytically  !
 ! R2    R(1,6)                  1.4036         calculate D2E/DX2 analytically  !
 ! R3    R(1,7)                  1.478          calculate D2E/DX2 analytically  !
 ! R4    R(2,3)                  1.3908         calculate D2E/DX2 analytically  !
 ! R5    R(2,13)                 1.0853         calculate D2E/DX2 analytically  !
 ! R6    R(3,4)                  1.4018         calculate D2E/DX2 analytically  !
 ! R7    R(3,14)                 1.0852         calculate D2E/DX2 analytically  !
 ! R8    R(4,5)                  1.4018         calculate D2E/DX2 analytically  !
 ! R9    R(4,62)                 1.4893         calculate D2E/DX2 analytically  !
 ! R10   R(5,6)                  1.3908         calculate D2E/DX2 analytically  !
 ! R11   R(5,15)                 1.0852         calculate D2E/DX2 analytically  !
 ! R12   R(6,16)                 1.0853         calculate D2E/DX2 analytically  !
 ! R13   R(7,8)                  1.4021         calculate D2E/DX2 analytically  !
 ! R14   R(7,12)                 1.4005         calculate D2E/DX2 analytically  !
 ! R15   R(8,9)                  1.3863         calculate D2E/DX2 analytically  !
 ! R16   R(8,17)                 1.0827         calculate D2E/DX2 analytically  !
 ! R17   R(9,10)                 1.4171         calculate D2E/DX2 analytically  !
 ! R18   R(9,41)                 1.7538         calculate D2E/DX2 analytically  !
 ! R19   R(10,11)                1.4139         calculate D2E/DX2 analytically  !
 ! R20   R(10,19)                1.4693         calculate D2E/DX2 analytically  !
 ! R21   R(11,12)                1.3883         calculate D2E/DX2 analytically  !
 ! R22   R(11,40)                1.7558         calculate D2E/DX2 analytically  !
 ! R23   R(12,18)                1.0827         calculate D2E/DX2 analytically  !
 ! R24   R(19,20)                1.4514         calculate D2E/DX2 analytically  !
 ! R25   R(19,27)                1.4665         calculate D2E/DX2 analytically  !
 ! R26   R(20,21)                1.4155         calculate D2E/DX2 analytically  !
 ! R27   R(20,22)                1.4119         calculate D2E/DX2 analytically  !
 ! R28   R(21,23)                1.3883         calculate D2E/DX2 analytically  !
 ! R29   R(21,36)                1.7509         calculate D2E/DX2 analytically  !
 ! R30   R(22,24)                1.3852         calculate D2E/DX2 analytically  !
 ! R31   R(22,65)                1.76           calculate D2E/DX2 analytically  !
 ! R32   R(23,25)                1.3948         calculate D2E/DX2 analytically  !
 ! R33   R(23,26)                1.0824         calculate D2E/DX2 analytically  !
 ! R34   R(24,25)                1.4025         calculate D2E/DX2 analytically  !
 ! R35   R(24,66)                1.07           calculate D2E/DX2 analytically  !
 ! R36   R(25,35)                1.7393         calculate D2E/DX2 analytically  !
 ! R37   R(27,28)                1.414          calculate D2E/DX2 analytically  !
 ! R38   R(27,29)                1.4158         calculate D2E/DX2 analytically  !
 ! R39   R(28,30)                1.3904         calculate D2E/DX2 analytically  !
 ! R40   R(28,38)                1.7516         calculate D2E/DX2 analytically  !
 ! R41   R(29,31)                1.3889         calculate D2E/DX2 analytically  !
 ! R42   R(29,39)                1.7516         calculate D2E/DX2 analytically  !
 ! R43   R(30,32)                1.3905         calculate D2E/DX2 analytically  !
 ! R44   R(30,33)                1.0818         calculate D2E/DX2 analytically  !
 ! R45   R(31,32)                1.3915         calculate D2E/DX2 analytically  !
 ! R46   R(31,34)                1.0818         calculate D2E/DX2 analytically  !
 ! R47   R(32,37)                1.7489         calculate D2E/DX2 analytically  !
 ! R48   R(42,44)                1.4311         calculate D2E/DX2 analytically  !
 ! R49   R(42,45)                1.4441         calculate D2E/DX2 analytically  !
 ! R50   R(42,62)                1.4129         calculate D2E/DX2 analytically  !
 ! R51   R(43,46)                1.4441         calculate D2E/DX2 analytically  !
 ! R52   R(43,47)                1.4311         calculate D2E/DX2 analytically  !
 ! R53   R(43,62)                1.4129         calculate D2E/DX2 analytically  !
 ! R54   R(44,48)                1.3696         calculate D2E/DX2 analytically  !
 ! R55   R(44,49)                1.0834         calculate D2E/DX2 analytically  !
 ! R56   R(45,50)                1.4287         calculate D2E/DX2 analytically  !
 ! R57   R(45,63)                1.3969         calculate D2E/DX2 analytically  !
 ! R58   R(46,51)                1.4287         calculate D2E/DX2 analytically  !
 ! R59   R(46,63)                1.3969         calculate D2E/DX2 analytically  !
 ! R60   R(47,52)                1.0834         calculate D2E/DX2 analytically  !
 ! R61   R(47,53)                1.3696         calculate D2E/DX2 analytically  !
 ! R62   R(48,54)                1.4236         calculate D2E/DX2 analytically  !
 ! R63   R(48,55)                1.0856         calculate D2E/DX2 analytically  !
 ! R64   R(50,54)                1.368          calculate D2E/DX2 analytically  !
 ! R65   R(50,56)                1.0864         calculate D2E/DX2 analytically  !
 ! R66   R(51,57)                1.368          calculate D2E/DX2 analytically  !
 ! R67   R(51,58)                1.0864         calculate D2E/DX2 analytically  !
 ! R68   R(53,57)                1.4235         calculate D2E/DX2 analytically  !
 ! R69   R(53,59)                1.0856         calculate D2E/DX2 analytically  !
 ! R70   R(54,60)                1.0855         calculate D2E/DX2 analytically  !
 ! R71   R(57,61)                1.0855         calculate D2E/DX2 analytically  !
 ! R72   R(63,64)                1.087          calculate D2E/DX2 analytically  !
 ! A1    A(2,1,6)              118.2473         calculate D2E/DX2 analytically  !
 ! A2    A(2,1,7)              120.8754         calculate D2E/DX2 analytically  !
 ! A3    A(6,1,7)              120.8772         calculate D2E/DX2 analytically  !
 ! A4    A(1,2,3)              120.8241         calculate D2E/DX2 analytically  !
 ! A5    A(1,2,13)             119.6471         calculate D2E/DX2 analytically  !
 ! A6    A(3,2,13)             119.5103         calculate D2E/DX2 analytically  !
 ! A7    A(2,3,4)              120.9077         calculate D2E/DX2 analytically  !
 ! A8    A(2,3,14)             119.9653         calculate D2E/DX2 analytically  !
 ! A9    A(4,3,14)             119.1258         calculate D2E/DX2 analytically  !
 ! A10   A(3,4,5)              118.2889         calculate D2E/DX2 analytically  !
 ! A11   A(3,4,62)             120.8515         calculate D2E/DX2 analytically  !
 ! A12   A(5,4,62)             120.8596         calculate D2E/DX2 analytically  !
 ! A13   A(4,5,6)              120.9101         calculate D2E/DX2 analytically  !
 ! A14   A(4,5,15)             119.122          calculate D2E/DX2 analytically  !
 ! A15   A(6,5,15)             119.9667         calculate D2E/DX2 analytically  !
 ! A16   A(1,6,5)              120.8218         calculate D2E/DX2 analytically  !
 ! A17   A(1,6,16)             119.6329         calculate D2E/DX2 analytically  !
 ! A18   A(5,6,16)             119.5261         calculate D2E/DX2 analytically  !
 ! A19   A(1,7,8)              120.9095         calculate D2E/DX2 analytically  !
 ! A20   A(1,7,12)             120.9596         calculate D2E/DX2 analytically  !
 ! A21   A(8,7,12)             118.1308         calculate D2E/DX2 analytically  !
 ! A22   A(7,8,9)              120.5895         calculate D2E/DX2 analytically  !
 ! A23   A(7,8,17)             120.3042         calculate D2E/DX2 analytically  !
 ! A24   A(9,8,17)             119.0412         calculate D2E/DX2 analytically  !
 ! A25   A(8,9,10)             122.8757         calculate D2E/DX2 analytically  !
 ! A26   A(8,9,41)             116.7413         calculate D2E/DX2 analytically  !
 ! A27   A(10,9,41)            120.2404         calculate D2E/DX2 analytically  !
 ! A28   A(9,10,11)            114.9118         calculate D2E/DX2 analytically  !
 ! A29   A(9,10,19)            122.1463         calculate D2E/DX2 analytically  !
 ! A30   A(11,10,19)           122.9413         calculate D2E/DX2 analytically  !
 ! A31   A(10,11,12)           122.931          calculate D2E/DX2 analytically  !
 ! A32   A(10,11,40)           120.3643         calculate D2E/DX2 analytically  !
 ! A33   A(12,11,40)           116.6157         calculate D2E/DX2 analytically  !
 ! A34   A(7,12,11)            120.5609         calculate D2E/DX2 analytically  !
 ! A35   A(7,12,18)            120.352          calculate D2E/DX2 analytically  !
 ! A36   A(11,12,18)           119.0306         calculate D2E/DX2 analytically  !
 ! A37   A(10,19,20)           118.223          calculate D2E/DX2 analytically  !
 ! A38   A(10,19,27)           119.6066         calculate D2E/DX2 analytically  !
 ! A39   A(20,19,27)           122.0725         calculate D2E/DX2 analytically  !
 ! A40   A(19,20,21)           125.1961         calculate D2E/DX2 analytically  !
 ! A41   A(19,20,22)           118.3715         calculate D2E/DX2 analytically  !
 ! A42   A(21,20,22)           116.4312         calculate D2E/DX2 analytically  !
 ! A43   A(20,21,23)           121.5107         calculate D2E/DX2 analytically  !
 ! A44   A(20,21,36)           121.7202         calculate D2E/DX2 analytically  !
 ! A45   A(23,21,36)           116.6753         calculate D2E/DX2 analytically  !
 ! A46   A(20,22,24)           122.5227         calculate D2E/DX2 analytically  !
 ! A47   A(20,22,65)           118.6558         calculate D2E/DX2 analytically  !
 ! A48   A(24,22,65)           118.8007         calculate D2E/DX2 analytically  !
 ! A49   A(21,23,25)           120.5453         calculate D2E/DX2 analytically  !
 ! A50   A(21,23,26)           119.9045         calculate D2E/DX2 analytically  !
 ! A51   A(25,23,26)           119.5403         calculate D2E/DX2 analytically  !
 ! A52   A(22,24,25)           119.5925         calculate D2E/DX2 analytically  !
 ! A53   A(22,24,66)           119.0222         calculate D2E/DX2 analytically  !
 ! A54   A(25,24,66)           121.3831         calculate D2E/DX2 analytically  !
 ! A55   A(23,25,24)           119.3819         calculate D2E/DX2 analytically  !
 ! A56   A(23,25,35)           118.8631         calculate D2E/DX2 analytically  !
 ! A57   A(24,25,35)           121.7523         calculate D2E/DX2 analytically  !
 ! A58   A(19,27,28)           122.1399         calculate D2E/DX2 analytically  !
 ! A59   A(19,27,29)           122.5897         calculate D2E/DX2 analytically  !
 ! A60   A(28,27,29)           115.2639         calculate D2E/DX2 analytically  !
 ! A61   A(27,28,30)           123.0819         calculate D2E/DX2 analytically  !
 ! A62   A(27,28,38)           120.5194         calculate D2E/DX2 analytically  !
 ! A63   A(30,28,38)           116.3148         calculate D2E/DX2 analytically  !
 ! A64   A(27,29,31)           123.0169         calculate D2E/DX2 analytically  !
 ! A65   A(27,29,39)           120.6862         calculate D2E/DX2 analytically  !
 ! A66   A(31,29,39)           116.2299         calculate D2E/DX2 analytically  !
 ! A67   A(28,30,32)           118.7097         calculate D2E/DX2 analytically  !
 ! A68   A(28,30,33)           120.3271         calculate D2E/DX2 analytically  !
 ! A69   A(32,30,33)           120.9534         calculate D2E/DX2 analytically  !
 ! A70   A(29,31,32)           118.7734         calculate D2E/DX2 analytically  !
 ! A71   A(29,31,34)           120.3171         calculate D2E/DX2 analytically  !
 ! A72   A(32,31,34)           120.9006         calculate D2E/DX2 analytically  !
 ! A73   A(30,32,31)           121.1535         calculate D2E/DX2 analytically  !
 ! A74   A(30,32,37)           119.442          calculate D2E/DX2 analytically  !
 ! A75   A(31,32,37)           119.4045         calculate D2E/DX2 analytically  !
 ! A76   A(44,42,45)           117.8881         calculate D2E/DX2 analytically  !
 ! A77   A(44,42,62)           122.6063         calculate D2E/DX2 analytically  !
 ! A78   A(45,42,62)           119.4959         calculate D2E/DX2 analytically  !
 ! A79   A(46,43,47)           117.8865         calculate D2E/DX2 analytically  !
 ! A80   A(46,43,62)           119.4965         calculate D2E/DX2 analytically  !
 ! A81   A(47,43,62)           122.6073         calculate D2E/DX2 analytically  !
 ! A82   A(42,44,48)           121.1769         calculate D2E/DX2 analytically  !
 ! A83   A(42,44,49)           118.8044         calculate D2E/DX2 analytically  !
 ! A84   A(48,44,49)           120.0177         calculate D2E/DX2 analytically  !
 ! A85   A(42,45,50)           119.086          calculate D2E/DX2 analytically  !
 ! A86   A(42,45,63)           119.4573         calculate D2E/DX2 analytically  !
 ! A87   A(50,45,63)           121.4554         calculate D2E/DX2 analytically  !
 ! A88   A(43,46,51)           119.0866         calculate D2E/DX2 analytically  !
 ! A89   A(43,46,63)           119.4569         calculate D2E/DX2 analytically  !
 ! A90   A(51,46,63)           121.4553         calculate D2E/DX2 analytically  !
 ! A91   A(43,47,52)           118.8045         calculate D2E/DX2 analytically  !
 ! A92   A(43,47,53)           121.1784         calculate D2E/DX2 analytically  !
 ! A93   A(52,47,53)           120.0161         calculate D2E/DX2 analytically  !
 ! A94   A(44,48,54)           120.7425         calculate D2E/DX2 analytically  !
 ! A95   A(44,48,55)           119.8191         calculate D2E/DX2 analytically  !
 ! A96   A(54,48,55)           119.4376         calculate D2E/DX2 analytically  !
 ! A97   A(45,50,54)           121.0675         calculate D2E/DX2 analytically  !
 ! A98   A(45,50,56)           118.2108         calculate D2E/DX2 analytically  !
 ! A99   A(54,50,56)           120.7214         calculate D2E/DX2 analytically  !
 ! A100  A(46,51,57)           121.0675         calculate D2E/DX2 analytically  !
 ! A101  A(46,51,58)           118.211          calculate D2E/DX2 analytically  !
 ! A102  A(57,51,58)           120.7212         calculate D2E/DX2 analytically  !
 ! A103  A(47,53,57)           120.7421         calculate D2E/DX2 analytically  !
 ! A104  A(47,53,59)           119.8198         calculate D2E/DX2 analytically  !
 ! A105  A(57,53,59)           119.4373         calculate D2E/DX2 analytically  !
 ! A106  A(48,54,50)           120.0244         calculate D2E/DX2 analytically  !
 ! A107  A(48,54,60)           119.6417         calculate D2E/DX2 analytically  !
 ! A108  A(50,54,60)           120.3323         calculate D2E/DX2 analytically  !
 ! A109  A(51,57,53)           120.0242         calculate D2E/DX2 analytically  !
 ! A110  A(51,57,61)           120.3329         calculate D2E/DX2 analytically  !
 ! A111  A(53,57,61)           119.6414         calculate D2E/DX2 analytically  !
 ! A112  A(4,62,42)            119.7734         calculate D2E/DX2 analytically  !
 ! A113  A(4,62,43)            119.7673         calculate D2E/DX2 analytically  !
 ! A114  A(42,62,43)           120.4593         calculate D2E/DX2 analytically  !
 ! A115  A(45,63,46)           121.6293         calculate D2E/DX2 analytically  !
 ! A116  A(45,63,64)           119.1856         calculate D2E/DX2 analytically  !
 ! A117  A(46,63,64)           119.1851         calculate D2E/DX2 analytically  !
 ! D1    D(6,1,2,3)              0.0327         calculate D2E/DX2 analytically  !
 ! D2    D(6,1,2,13)           178.4586         calculate D2E/DX2 analytically  !
 ! D3    D(7,1,2,3)           -179.9802         calculate D2E/DX2 analytically  !
 ! D4    D(7,1,2,13)            -1.5543         calculate D2E/DX2 analytically  !
 ! D5    D(2,1,6,5)             -0.0086         calculate D2E/DX2 analytically  !
 ! D6    D(2,1,6,16)           178.3914         calculate D2E/DX2 analytically  !
 ! D7    D(7,1,6,5)           -179.9957         calculate D2E/DX2 analytically  !
 ! D8    D(7,1,6,16)            -1.5957         calculate D2E/DX2 analytically  !
 ! D9    D(2,1,7,8)            -35.0223         calculate D2E/DX2 analytically  !
 ! D10   D(2,1,7,12)           144.9883         calculate D2E/DX2 analytically  !
 ! D11   D(6,1,7,8)            144.9644         calculate D2E/DX2 analytically  !
 ! D12   D(6,1,7,12)           -35.0249         calculate D2E/DX2 analytically  !
 ! D13   D(1,2,3,4)             -0.0308         calculate D2E/DX2 analytically  !
 ! D14   D(1,2,3,14)           179.5736         calculate D2E/DX2 analytically  !
 ! D15   D(13,2,3,4)          -178.4589         calculate D2E/DX2 analytically  !
 ! D16   D(13,2,3,14)            1.1455         calculate D2E/DX2 analytically  !
 ! D17   D(2,3,4,5)              0.0041         calculate D2E/DX2 analytically  !
 ! D18   D(2,3,4,62)          -179.9946         calculate D2E/DX2 analytically  !
 ! D19   D(14,3,4,5)          -179.6035         calculate D2E/DX2 analytically  !
 ! D20   D(14,3,4,62)            0.3977         calculate D2E/DX2 analytically  !
 ! D21   D(3,4,5,6)              0.0199         calculate D2E/DX2 analytically  !
 ! D22   D(3,4,5,15)          -179.5746         calculate D2E/DX2 analytically  !
 ! D23   D(62,4,5,6)          -179.9813         calculate D2E/DX2 analytically  !
 ! D24   D(62,4,5,15)            0.4242         calculate D2E/DX2 analytically  !
 ! D25   D(3,4,62,42)          109.7305         calculate D2E/DX2 analytically  !
 ! D26   D(3,4,62,43)          -70.2622         calculate D2E/DX2 analytically  !
 ! D27   D(5,4,62,42)          -70.2682         calculate D2E/DX2 analytically  !
 ! D28   D(5,4,62,43)          109.7391         calculate D2E/DX2 analytically  !
 ! D29   D(4,5,6,1)             -0.0177         calculate D2E/DX2 analytically  !
 ! D30   D(4,5,6,16)          -178.4195         calculate D2E/DX2 analytically  !
 ! D31   D(15,5,6,1)           179.5734         calculate D2E/DX2 analytically  !
 ! D32   D(15,5,6,16)            1.1716         calculate D2E/DX2 analytically  !
 ! D33   D(1,7,8,9)           -179.9535         calculate D2E/DX2 analytically  !
 ! D34   D(1,7,8,17)            -2.914          calculate D2E/DX2 analytically  !
 ! D35   D(12,7,8,9)             0.0362         calculate D2E/DX2 analytically  !
 ! D36   D(12,7,8,17)          177.0756         calculate D2E/DX2 analytically  !
 ! D37   D(1,7,12,11)          179.9328         calculate D2E/DX2 analytically  !
 ! D38   D(1,7,12,18)           -2.8258         calculate D2E/DX2 analytically  !
 ! D39   D(8,7,12,11)           -0.0569         calculate D2E/DX2 analytically  !
 ! D40   D(8,7,12,18)          177.1846         calculate D2E/DX2 analytically  !
 ! D41   D(7,8,9,10)             0.0644         calculate D2E/DX2 analytically  !
 ! D42   D(7,8,9,41)           175.7269         calculate D2E/DX2 analytically  !
 ! D43   D(17,8,9,10)         -177.012          calculate D2E/DX2 analytically  !
 ! D44   D(17,8,9,41)           -1.3495         calculate D2E/DX2 analytically  !
 ! D45   D(8,9,10,11)           -0.1351         calculate D2E/DX2 analytically  !
 ! D46   D(8,9,10,19)          179.5795         calculate D2E/DX2 analytically  !
 ! D47   D(41,9,10,11)        -175.651          calculate D2E/DX2 analytically  !
 ! D48   D(41,9,10,19)           4.0635         calculate D2E/DX2 analytically  !
 ! D49   D(9,10,11,12)           0.1137         calculate D2E/DX2 analytically  !
 ! D50   D(9,10,11,40)        -176.3385         calculate D2E/DX2 analytically  !
 ! D51   D(19,10,11,12)       -179.5983         calculate D2E/DX2 analytically  !
 ! D52   D(19,10,11,40)          3.9495         calculate D2E/DX2 analytically  !
 ! D53   D(9,10,19,20)          54.1174         calculate D2E/DX2 analytically  !
 ! D54   D(9,10,19,27)        -129.4061         calculate D2E/DX2 analytically  !
 ! D55   D(11,10,19,20)       -126.1911         calculate D2E/DX2 analytically  !
 ! D56   D(11,10,19,27)         50.2854         calculate D2E/DX2 analytically  !
 ! D57   D(10,11,12,7)          -0.0216         calculate D2E/DX2 analytically  !
 ! D58   D(10,11,12,18)       -177.2991         calculate D2E/DX2 analytically  !
 ! D59   D(40,11,12,7)         176.5546         calculate D2E/DX2 analytically  !
 ! D60   D(40,11,12,18)         -0.723          calculate D2E/DX2 analytically  !
 ! D61   D(10,19,20,21)       -146.7135         calculate D2E/DX2 analytically  !
 ! D62   D(10,19,20,22)         32.8849         calculate D2E/DX2 analytically  !
 ! D63   D(27,19,20,21)         36.9018         calculate D2E/DX2 analytically  !
 ! D64   D(27,19,20,22)       -143.4997         calculate D2E/DX2 analytically  !
 ! D65   D(10,19,27,28)         51.0683         calculate D2E/DX2 analytically  !
 ! D66   D(10,19,27,29)       -127.955          calculate D2E/DX2 analytically  !
 ! D67   D(20,19,27,28)       -132.5956         calculate D2E/DX2 analytically  !
 ! D68   D(20,19,27,29)         48.3811         calculate D2E/DX2 analytically  !
 ! D69   D(19,20,21,23)       -179.1012         calculate D2E/DX2 analytically  !
 ! D70   D(19,20,21,36)          4.5357         calculate D2E/DX2 analytically  !
 ! D71   D(22,20,21,23)          1.2934         calculate D2E/DX2 analytically  !
 ! D72   D(22,20,21,36)       -175.0697         calculate D2E/DX2 analytically  !
 ! D73   D(19,20,22,24)        179.1891         calculate D2E/DX2 analytically  !
 ! D74   D(19,20,22,65)          0.8727         calculate D2E/DX2 analytically  !
 ! D75   D(21,20,22,24)         -1.1774         calculate D2E/DX2 analytically  !
 ! D76   D(21,20,22,65)       -179.4937         calculate D2E/DX2 analytically  !
 ! D77   D(20,21,23,25)         -0.4284         calculate D2E/DX2 analytically  !
 ! D78   D(20,21,23,26)       -179.2794         calculate D2E/DX2 analytically  !
 ! D79   D(36,21,23,25)        176.1096         calculate D2E/DX2 analytically  !
 ! D80   D(36,21,23,26)         -2.7414         calculate D2E/DX2 analytically  !
 ! D81   D(20,22,24,25)          0.1843         calculate D2E/DX2 analytically  !
 ! D82   D(20,22,24,66)       -179.2865         calculate D2E/DX2 analytically  !
 ! D83   D(65,22,24,25)        178.4984         calculate D2E/DX2 analytically  !
 ! D84   D(65,22,24,66)         -0.9724         calculate D2E/DX2 analytically  !
 ! D85   D(21,23,25,24)         -0.6224         calculate D2E/DX2 analytically  !
 ! D86   D(21,23,25,35)        179.9556         calculate D2E/DX2 analytically  !
 ! D87   D(26,23,25,24)        178.2328         calculate D2E/DX2 analytically  !
 ! D88   D(26,23,25,35)         -1.1892         calculate D2E/DX2 analytically  !
 ! D89   D(22,24,25,23)          0.7421         calculate D2E/DX2 analytically  !
 ! D90   D(22,24,25,35)       -179.8532         calculate D2E/DX2 analytically  !
 ! D91   D(66,24,25,23)       -179.7999         calculate D2E/DX2 analytically  !
 ! D92   D(66,24,25,35)         -0.3952         calculate D2E/DX2 analytically  !
 ! D93   D(19,27,28,30)       -179.2368         calculate D2E/DX2 analytically  !
 ! D94   D(19,27,28,38)          4.2177         calculate D2E/DX2 analytically  !
 ! D95   D(29,27,28,30)         -0.1468         calculate D2E/DX2 analytically  !
 ! D96   D(29,27,28,38)       -176.6923         calculate D2E/DX2 analytically  !
 ! D97   D(19,27,29,31)        179.3985         calculate D2E/DX2 analytically  !
 ! D98   D(19,27,29,39)          2.4892         calculate D2E/DX2 analytically  !
 ! D99   D(28,27,29,31)          0.313          calculate D2E/DX2 analytically  !
 ! D100  D(28,27,29,39)       -176.5964         calculate D2E/DX2 analytically  !
 ! D101  D(27,28,30,32)         -0.0747         calculate D2E/DX2 analytically  !
 ! D102  D(27,28,30,33)       -178.9486         calculate D2E/DX2 analytically  !
 ! D103  D(38,28,30,32)        176.6055         calculate D2E/DX2 analytically  !
 ! D104  D(38,28,30,33)         -2.2684         calculate D2E/DX2 analytically  !
 ! D105  D(27,29,31,32)         -0.2512         calculate D2E/DX2 analytically  !
 ! D106  D(27,29,31,34)       -179.1743         calculate D2E/DX2 analytically  !
 ! D107  D(39,29,31,32)        176.7859         calculate D2E/DX2 analytically  !
 ! D108  D(39,29,31,34)         -2.1372         calculate D2E/DX2 analytically  !
 ! D109  D(28,30,32,31)          0.1492         calculate D2E/DX2 analytically  !
 ! D110  D(28,30,32,37)       -179.9049         calculate D2E/DX2 analytically  !
 ! D111  D(33,30,32,31)        179.0159         calculate D2E/DX2 analytically  !
 ! D112  D(33,30,32,37)         -1.0382         calculate D2E/DX2 analytically  !
 ! D113  D(29,31,32,30)          0.0076         calculate D2E/DX2 analytically  !
 ! D114  D(29,31,32,37)       -179.9383         calculate D2E/DX2 analytically  !
 ! D115  D(34,31,32,30)        178.9242         calculate D2E/DX2 analytically  !
 ! D116  D(34,31,32,37)         -1.0217         calculate D2E/DX2 analytically  !
 ! D117  D(45,42,44,48)         -1.1983         calculate D2E/DX2 analytically  !
 ! D118  D(45,42,44,49)        178.4299         calculate D2E/DX2 analytically  !
 ! D119  D(62,42,44,48)        179.9393         calculate D2E/DX2 analytically  !
 ! D120  D(62,42,44,49)         -0.4325         calculate D2E/DX2 analytically  !
 ! D121  D(44,42,45,50)          1.3363         calculate D2E/DX2 analytically  !
 ! D122  D(44,42,45,63)       -178.2535         calculate D2E/DX2 analytically  !
 ! D123  D(62,42,45,50)       -179.7648         calculate D2E/DX2 analytically  !
 ! D124  D(62,42,45,63)          0.6455         calculate D2E/DX2 analytically  !
 ! D125  D(44,42,62,4)          -1.4696         calculate D2E/DX2 analytically  !
 ! D126  D(44,42,62,43)        178.523          calculate D2E/DX2 analytically  !
 ! D127  D(45,42,62,4)         179.6856         calculate D2E/DX2 analytically  !
 ! D128  D(45,42,62,43)         -0.3217         calculate D2E/DX2 analytically  !
 ! D129  D(47,43,46,51)          1.3357         calculate D2E/DX2 analytically  !
 ! D130  D(47,43,46,63)       -178.2586         calculate D2E/DX2 analytically  !
 ! D131  D(62,43,46,51)       -179.7615         calculate D2E/DX2 analytically  !
 ! D132  D(62,43,46,63)          0.6442         calculate D2E/DX2 analytically  !
 ! D133  D(46,43,47,52)        178.4385         calculate D2E/DX2 analytically  !
 ! D134  D(46,43,47,53)         -1.1975         calculate D2E/DX2 analytically  !
 ! D135  D(62,43,47,52)         -0.4278         calculate D2E/DX2 analytically  !
 ! D136  D(62,43,47,53)        179.9362         calculate D2E/DX2 analytically  !
 ! D137  D(46,43,62,4)         179.6751         calculate D2E/DX2 analytically  !
 ! D138  D(46,43,62,42)         -0.3176         calculate D2E/DX2 analytically  !
 ! D139  D(47,43,62,4)          -1.4762         calculate D2E/DX2 analytically  !
 ! D140  D(47,43,62,42)        178.5312         calculate D2E/DX2 analytically  !
 ! D141  D(42,44,48,54)          0.2557         calculate D2E/DX2 analytically  !
 ! D142  D(42,44,48,55)        179.9128         calculate D2E/DX2 analytically  !
 ! D143  D(49,44,48,54)       -179.368          calculate D2E/DX2 analytically  !
 ! D144  D(49,44,48,55)          0.2891         calculate D2E/DX2 analytically  !
 ! D145  D(42,45,50,54)         -0.5612         calculate D2E/DX2 analytically  !
 ! D146  D(42,45,50,56)        179.6352         calculate D2E/DX2 analytically  !
 ! D147  D(63,45,50,54)        179.0201         calculate D2E/DX2 analytically  !
 ! D148  D(63,45,50,56)         -0.7836         calculate D2E/DX2 analytically  !
 ! D149  D(42,45,63,46)         -0.3205         calculate D2E/DX2 analytically  !
 ! D150  D(42,45,63,64)        179.6765         calculate D2E/DX2 analytically  !
 ! D151  D(50,45,63,46)       -179.9002         calculate D2E/DX2 analytically  !
 ! D152  D(50,45,63,64)          0.0968         calculate D2E/DX2 analytically  !
 ! D153  D(43,46,51,57)         -0.5616         calculate D2E/DX2 analytically  !
 ! D154  D(43,46,51,58)        179.6302         calculate D2E/DX2 analytically  !
 ! D155  D(63,46,51,57)        179.0243         calculate D2E/DX2 analytically  !
 ! D156  D(63,46,51,58)         -0.7839         calculate D2E/DX2 analytically  !
 ! D157  D(43,46,63,45)         -0.3222         calculate D2E/DX2 analytically  !
 ! D158  D(43,46,63,64)        179.6808         calculate D2E/DX2 analytically  !
 ! D159  D(51,46,63,45)       -179.9066         calculate D2E/DX2 analytically  !
 ! D160  D(51,46,63,64)          0.0964         calculate D2E/DX2 analytically  !
 ! D161  D(43,47,53,57)          0.2555         calculate D2E/DX2 analytically  !
 ! D162  D(43,47,53,59)        179.9209         calculate D2E/DX2 analytically  !
 ! D163  D(52,47,53,57)       -179.3761         calculate D2E/DX2 analytically  !
 ! D164  D(52,47,53,59)          0.2893         calculate D2E/DX2 analytically  !
 ! D165  D(44,48,54,50)          0.5729         calculate D2E/DX2 analytically  !
 ! D166  D(44,48,54,60)       -179.8746         calculate D2E/DX2 analytically  !
 ! D167  D(55,48,54,50)       -179.0854         calculate D2E/DX2 analytically  !
 ! D168  D(55,48,54,60)          0.4671         calculate D2E/DX2 analytically  !
 ! D169  D(45,50,54,48)         -0.4049         calculate D2E/DX2 analytically  !
 ! D170  D(45,50,54,60)       -179.9543         calculate D2E/DX2 analytically  !
 ! D171  D(56,50,54,48)        179.3938         calculate D2E/DX2 analytically  !
 ! D172  D(56,50,54,60)         -0.1555         calculate D2E/DX2 analytically  !
 ! D173  D(46,51,57,53)         -0.4038         calculate D2E/DX2 analytically  !
 ! D174  D(46,51,57,61)       -179.9597         calculate D2E/DX2 analytically  !
 ! D175  D(58,51,57,53)        179.3996         calculate D2E/DX2 analytically  !
 ! D176  D(58,51,57,61)         -0.1563         calculate D2E/DX2 analytically  !
 ! D177  D(47,53,57,51)          0.5721         calculate D2E/DX2 analytically  !
 ! D178  D(47,53,57,61)       -179.8689         calculate D2E/DX2 analytically  !
 ! D179  D(59,53,57,51)       -179.0946         calculate D2E/DX2 analytically  !
 ! D180  D(59,53,57,61)          0.4644         calculate D2E/DX2 analytically  !
 --------------------------------------------------------------------------------
 Trust Radius=3.00D-01 FncErr=1.00D-07 GrdErr=1.00D-06 EigMax=2.50D+02 EigMin=1.00D-04
 Number of steps in this run=    379 maximum allowed number of steps=    396.
 Step   0 in ReCalcFC= 5 IGetFC= 4 compute analytic Hessian.
 GradGradGradGradGradGradGradGradGradGradGradGradGradGradGradGradGradGrad

 Leave Link  103 at Fri Jun 13 10:52:10 2025, MaxMem=  7516192768 cpu:               1.2 elap:               0.2
 (Enter /share/apps/softwares/gaussian/16/g16/l202.exe)
 Stoichiometry    C39H19Cl8(2)
 Framework group  C1[X(C39H19Cl8)]
 Deg. of freedom   192
 Full point group                 C1      NOp   1
 Largest Abelian subgroup         C1      NOp   1
 Largest concise Abelian subgroup C1      NOp   1
                         Standard orientation:                         
 ---------------------------------------------------------------------
 Center     Atomic      Atomic             Coordinates (Angstroms)
 Number     Number       Type             X           Y           Z
 ---------------------------------------------------------------------
      1          6           0       -2.518855   -0.018112   -0.012836
      2          6           0       -3.246770    1.022710   -0.610318
      3          6           0       -4.637548    1.017047   -0.600008
      4          6           0       -5.348866   -0.027689    0.006272
      5          6           0       -4.622317   -1.067689    0.602642
      6          6           0       -3.231546   -1.064021    0.594061
      7          6           0       -1.040902   -0.013023   -0.022751
      8          6           0       -0.329773    0.497414   -1.117972
      9          6           0        1.056521    0.498041   -1.120663
     10          6           0        1.828078   -0.005850   -0.044085
     11          6           0        1.076722   -0.510274    1.042254
     12          6           0       -0.311419   -0.517864    1.060915
     13          1           0       -2.718924    1.855384   -1.064012
     14          1           0       -5.186338    1.832427   -1.060104
     15          1           0       -5.159354   -1.886879    1.069803
     16          1           0       -2.691759   -1.893349    1.039742
     17          1           0       -0.857208    0.852965   -1.994092
     18          1           0       -0.823024   -0.878870    1.944159
     19          6           0        3.297141   -0.005539   -0.067731
     20          6           0        3.979240    1.249820   -0.323695
     21          6           0        5.206073    1.385243   -1.016743
     22          6           0        3.384439    2.443313    0.140243
     23          6           0        5.801333    2.625612   -1.202712
     24          6           0        3.968291    3.686166   -0.042050
     25          6           0        5.195418    3.783039   -0.714217
     26          1           0        6.733966    2.700436   -1.746880
     27          6           0        4.026963   -1.239404    0.241217
     28          6           0        3.734393   -2.466442   -0.397632
     29          6           0        5.057311   -1.293527    1.210669
     30          6           0        4.403126   -3.650740   -0.108928
     31          6           0        5.745910   -2.459656    1.518910
     32          6           0        5.408725   -3.633015    0.851196
     33          1           0        4.154333   -4.561341   -0.637359
     34          1           0        6.517171   -2.454114    2.277492
     35         17           0        5.980119    5.313950   -0.970887
     36         17           0        5.999073    0.013266   -1.761295
     37         17           0        6.264059   -5.111266    1.227570
     38         17           0        2.544038   -2.539734   -1.680510
     39         17           0        5.474982    0.123779    2.151301
     40         17           0        1.886018   -1.081450    2.491945
     41         17           0        1.842558    1.052750   -2.587001
     42          6           0       -7.542070   -0.970329   -0.771729
     43          6           0       -7.537180    0.900823    0.814231
     44          6           0       -6.881671   -1.915240   -1.619633
     45          6           0       -8.986059   -0.974172   -0.752058
     46          6           0       -8.981296    0.895522    0.814282
     47          6           0       -6.871293    1.850033    1.652991
     48          6           0       -7.593408   -2.812530   -2.370663
     49          1           0       -5.799278   -1.908200   -1.665451
     50          6           0       -9.688939   -1.929520   -1.548519
     51          6           0       -9.679284    1.846511    1.620219
     52          1           0       -5.788357    1.849969    1.683935
     53          6           0       -7.578375    2.742896    2.413629
     54          6           0       -9.016381   -2.826485   -2.332486
     55          1           0       -7.069784   -3.518806   -3.007545
     56          1           0      -10.774884   -1.923679   -1.518362
     57          6           0       -9.001790    2.747820    2.394892
     58          1           0      -10.765481    1.833840    1.604828
     59          1           0       -7.050596    3.452657    3.043159
     60          1           0       -9.562523   -3.546765   -2.933517
     61          1           0       -9.544222    3.464766    3.003219
     62          6           0       -6.838106   -0.032547    0.016477
     63          6           0       -9.664832   -0.041486    0.035771
     64          1           0      -10.751849   -0.044904    0.043167
     65         17           0        1.864347    2.341637    1.021482
     66          1           0        3.473825    4.553477    0.342884
 ---------------------------------------------------------------------
 Rotational constants (GHZ):           0.0868407           0.0207841           0.0187677
 Leave Link  202 at Fri Jun 13 10:52:11 2025, MaxMem=  7516192768 cpu:               1.8 elap:               0.2
 (Enter /share/apps/softwares/gaussian/16/g16/l301.exe)
 Standard basis: 6-31G(d,p) (6D, 7F)
 Ernie: Thresh=  0.10000D-02 Tol=  0.10000D-05 Strict=F.
 There are   832 symmetry adapted cartesian basis functions of A   symmetry.
 There are   832 symmetry adapted basis functions of A   symmetry.
   832 basis functions,  1641 primitive gaussians,   832 cartesian basis functions
   195 alpha electrons      194 beta electrons
       nuclear repulsion energy      7166.8173491104 Hartrees.
 IExCor=  402 DFT=T Ex+Corr=B3LYP ExCW=0 ScaHFX=  0.200000
 ScaDFX=  0.800000  0.720000  1.000000  0.810000 ScalE2=  1.000000  1.000000
 IRadAn=      5 IRanWt=     -1 IRanGd=            0 ICorTp=0 IEmpDi=141
 NAtoms=   66 NActive=   66 NUniq=   66 SFac= 1.00D+00 NAtFMM=   60 NAOKFM=T Big=T
 Integral buffers will be    131072 words long.
 Raffenetti 2 integral format.
 Two-electron integral symmetry is turned on.
 R6Disp:  Grimme-D3(BJ) Dispersion energy=       -0.2275762459 Hartrees.
 Nuclear repulsion after empirical dispersion term =     7166.5897728645 Hartrees.
 Leave Link  301 at Fri Jun 13 10:52:11 2025, MaxMem=  7516192768 cpu:               2.2 elap:               0.2
 (Enter /share/apps/softwares/gaussian/16/g16/l302.exe)
 NPDir=0 NMtPBC=     1 NCelOv=     1 NCel=       1 NClECP=     1 NCelD=      1
         NCelK=      1 NCelE2=     1 NClLst=     1 CellRange=     0.0.
 One-electron integrals computed using PRISM.
 One-electron integral symmetry used in STVInt
 NBasis=   832 RedAO= T EigKep=  1.81D-04  NBF=   832
 NBsUse=   832 1.00D-06 EigRej= -1.00D+00 NBFU=   832
 Precomputing XC quadrature grid using
 IXCGrd= 4 IRadAn=           5 IRanWt=          -1 IRanGd=           0 AccXCQ= 0.00D+00.
 Generated NRdTot=       0 NPtTot=           0 NUsed=           0 NTot=          32
 NSgBfM=   765   762   765   765   765 MxSgAt=    66 MxSgA2=    66.
 Leave Link  302 at Fri Jun 13 10:52:13 2025, MaxMem=  7516192768 cpu:              33.7 elap:               1.5
 (Enter /share/apps/softwares/gaussian/16/g16/l303.exe)
 DipDrv:  MaxL=1.
 Leave Link  303 at Fri Jun 13 10:52:14 2025, MaxMem=  7516192768 cpu:               2.8 elap:               0.2
 (Enter /share/apps/softwares/gaussian/16/g16/l401.exe)
 ExpMin= 1.43D-01 ExpMax= 2.52D+04 ExpMxC= 3.78D+03 IAcc=3 IRadAn=         5 AccDes= 0.00D+00
 Harris functional with IExCor=  402 and IRadAn=       5 diagonalized for initial guess.
 HarFok:  IExCor=  402 AccDes= 0.00D+00 IRadAn=         5 IDoV= 1 UseB2=F ITyADJ=14
 ICtDFT=  3500011 ScaDFX=  1.000000  1.000000  1.000000  1.000000
 FoFCou: FMM=F IPFlag=           0 FMFlag=      100000 FMFlg1=        2001
         NFxFlg=           0 DoJE=T BraDBF=F KetDBF=T FulRan=T
         wScrn=  0.000000 ICntrl=       500 IOpCl=  0 I1Cent=   200000004 NGrid=           0
         NMat0=    1 NMatS0=      1 NMatT0=    0 NMatD0=    1 NMtDS0=    0 NMtDT0=    0
 Petite list used in FoFCou.
 Harris En= -5178.79653533047    
 JPrj=0 DoOrth=F DoCkMO=F.
 Initial guess <Sx>= 0.0000 <Sy>= 0.0000 <Sz>= 0.5000 <S**2>= 0.7500 S= 0.5000
 Leave Link  401 at Fri Jun 13 10:52:19 2025, MaxMem=  7516192768 cpu:              88.5 elap:               3.8
 (Enter /share/apps/softwares/gaussian/16/g16/l502.exe)
 Integral symmetry usage will be decided dynamically.
 UHF open shell SCF:
 Using DIIS extrapolation, IDIIS=  1040.
 NGot=  7516192768 LenX=  7514778677 LenY=  7514085621
 Requested convergence on RMS density matrix=1.00D-08 within 128 cycles.
 Requested convergence on MAX density matrix=1.00D-06.
 Requested convergence on             energy=1.00D-06.
 No special actions if energy rises.
 Fock matrices will be formed incrementally for  20 cycles.
 Integral accuracy reduced to 1.0D-05 until final iterations.

 Cycle   1  Pass 0  IDiag  1:
 FoFJK:  IHMeth= 1 ICntrl=       0 DoSepK=F KAlg= 0 I1Cent=           0 FoldK=F
 IRaf= 670000000 NMat=       1 IRICut=       1 DoRegI=T DoRafI=F ISym2E= 0 IDoP0=0 IntGTp=1.
 FoFCou: FMM=T IPFlag=           0 FMFlag=      100000 FMFlg1=        2001
         NFxFlg=           0 DoJE=F BraDBF=F KetDBF=F FulRan=T
         wScrn=  0.000000 ICntrl=         0 IOpCl=  1 I1Cent=           0 NGrid=           0
         NMat0=    1 NMatS0=      1 NMatT0=    0 NMatD0=    1 NMtDS0=    0 NMtDT0=    0
 Symmetry not used in FoFCou.
 FMM levels:  10  Number of levels for PrismC:   9
 E= -5178.39074518583    
 DIIS: error= 3.83D-02 at cycle   1 NSaved=   1.
 NSaved= 1 IEnMin= 1 EnMin= -5178.39074518583     IErMin= 1 ErrMin= 3.83D-02
 ErrMax= 3.83D-02  0.00D+00 EMaxC= 1.00D-01 BMatC= 3.76D+00 BMatP= 3.76D+00
 IDIUse=3 WtCom= 6.17D-01 WtEn= 3.83D-01
 Coeff-Com:  0.100D+01
 Coeff-En:   0.100D+01
 Coeff:      0.100D+01
 Gap=     0.158 Goal=   None    Shift=    0.000
 Gap=     0.198 Goal=   None    Shift=    0.000
 GapD=    0.158 DampG=1.000 DampE=0.500 DampFc=0.5000 IDamp=-1.
 Damping current iteration by 5.00D-01
 RMSDP=3.16D-03 MaxDP=1.54D-01              OVMax= 3.49D-01

 Cycle   2  Pass 0  IDiag  1:
 RMSU=  1.56D-03    CP:  9.82D-01
 E= -5178.81326692407     Delta-E=       -0.422521738234 Rises=F Damp=T
 DIIS: error= 8.59D-03 at cycle   2 NSaved=   2.
 NSaved= 2 IEnMin= 2 EnMin= -5178.81326692407     IErMin= 2 ErrMin= 8.59D-03
 ErrMax= 8.59D-03  0.00D+00 EMaxC= 1.00D-01 BMatC= 2.94D-01 BMatP= 3.76D+00
 IDIUse=3 WtCom= 9.14D-01 WtEn= 8.59D-02
 Coeff-Com:  0.621D-01 0.938D+00
 Coeff-En:   0.146D+00 0.854D+00
 Coeff:      0.693D-01 0.931D+00
 Gap=     0.176 Goal=   None    Shift=    0.000
 Gap=     0.037 Goal=   None    Shift=    0.000
 RMSDP=1.09D-03 MaxDP=7.21D-02 DE=-4.23D-01 OVMax= 2.15D-01

 Cycle   3  Pass 0  IDiag  1:
 RMSU=  1.07D-03    CP:  9.69D-01  8.98D-01
 E= -5179.34183376040     Delta-E=       -0.528566836336 Rises=F Damp=F
 DIIS: error= 7.07D-03 at cycle   3 NSaved=   3.
 NSaved= 3 IEnMin= 3 EnMin= -5179.34183376040     IErMin= 3 ErrMin= 7.07D-03
 ErrMax= 7.07D-03  0.00D+00 EMaxC= 1.00D-01 BMatC= 1.25D-01 BMatP= 2.94D-01
 IDIUse=3 WtCom= 9.29D-01 WtEn= 7.07D-02
 Coeff-Com: -0.329D-01 0.370D+00 0.663D+00
 Coeff-En:   0.000D+00 0.000D+00 0.100D+01
 Coeff:     -0.306D-01 0.344D+00 0.687D+00
 Gap=     0.153 Goal=   None    Shift=    0.000
 Gap=     0.081 Goal=   None    Shift=    0.000
 RMSDP=4.90D-04 MaxDP=2.80D-02 DE=-5.29D-01 OVMax= 7.28D-02

 Cycle   4  Pass 0  IDiag  1:
 RMSU=  3.91D-04    CP:  9.70D-01  9.90D-01  7.59D-01
 E= -5179.35122429624     Delta-E=       -0.009390535839 Rises=F Damp=F
 DIIS: error= 9.37D-03 at cycle   4 NSaved=   4.
 NSaved= 4 IEnMin= 4 EnMin= -5179.35122429624     IErMin= 3 ErrMin= 7.07D-03
 ErrMax= 9.37D-03  0.00D+00 EMaxC= 1.00D-01 BMatC= 9.33D-02 BMatP= 1.25D-01
 IDIUse=3 WtCom= 9.06D-01 WtEn= 9.37D-02
 Coeff-Com: -0.259D-01 0.128D+00 0.477D+00 0.420D+00
 Coeff-En:   0.000D+00 0.000D+00 0.436D+00 0.564D+00
 Coeff:     -0.235D-01 0.116D+00 0.474D+00 0.434D+00
 Gap=     0.126 Goal=   None    Shift=    0.000
 Gap=     0.074 Goal=   None    Shift=    0.000
 RMSDP=2.81D-04 MaxDP=1.91D-02 DE=-9.39D-03 OVMax= 5.26D-02

 Cycle   5  Pass 0  IDiag  1:
 RMSU=  1.54D-04    CP:  9.70D-01  9.78D-01  8.12D-01  4.17D-01
 E= -5179.37502249588     Delta-E=       -0.023798199642 Rises=F Damp=F
 DIIS: error= 2.90D-03 at cycle   5 NSaved=   5.
 NSaved= 5 IEnMin= 5 EnMin= -5179.37502249588     IErMin= 5 ErrMin= 2.90D-03
 ErrMax= 2.90D-03  0.00D+00 EMaxC= 1.00D-01 BMatC= 1.17D-02 BMatP= 9.33D-02
 IDIUse=3 WtCom= 9.71D-01 WtEn= 2.90D-02
 Coeff-Com: -0.106D-01 0.310D-01 0.233D+00 0.298D+00 0.448D+00
 Coeff-En:   0.000D+00 0.000D+00 0.000D+00 0.101D+00 0.899D+00
 Coeff:     -0.103D-01 0.301D-01 0.227D+00 0.293D+00 0.461D+00
 Gap=     0.130 Goal=   None    Shift=    0.000
 Gap=     0.068 Goal=   None    Shift=    0.000
 RMSDP=1.04D-04 MaxDP=5.78D-03 DE=-2.38D-02 OVMax= 2.37D-02

 Cycle   6  Pass 0  IDiag  1:
 RMSU=  5.66D-05    CP:  9.70D-01  9.72D-01  8.38D-01  5.19D-01  5.38D-01
 E= -5179.37813741600     Delta-E=       -0.003114920117 Rises=F Damp=F
 DIIS: error= 6.26D-04 at cycle   6 NSaved=   6.
 NSaved= 6 IEnMin= 6 EnMin= -5179.37813741600     IErMin= 6 ErrMin= 6.26D-04
 ErrMax= 6.26D-04  0.00D+00 EMaxC= 1.00D-01 BMatC= 9.03D-04 BMatP= 1.17D-02
 IDIUse=3 WtCom= 9.94D-01 WtEn= 6.26D-03
 Coeff-Com: -0.305D-02 0.338D-02 0.817D-01 0.124D+00 0.269D+00 0.525D+00
 Coeff-En:   0.000D+00 0.000D+00 0.000D+00 0.000D+00 0.960D-02 0.990D+00
 Coeff:     -0.303D-02 0.336D-02 0.812D-01 0.123D+00 0.267D+00 0.528D+00
 Gap=     0.127 Goal=   None    Shift=    0.000
 Gap=     0.071 Goal=   None    Shift=    0.000
 RMSDP=3.22D-05 MaxDP=2.46D-03 DE=-3.11D-03 OVMax= 9.26D-03

 Cycle   7  Pass 0  IDiag  1:
 RMSU=  2.31D-05    CP:  9.70D-01  9.73D-01  8.37D-01  5.19D-01  6.35D-01
                    CP:  7.09D-01
 E= -5179.37837758483     Delta-E=       -0.000240168827 Rises=F Damp=F
 DIIS: error= 2.43D-04 at cycle   7 NSaved=   7.
 NSaved= 7 IEnMin= 7 EnMin= -5179.37837758483     IErMin= 7 ErrMin= 2.43D-04
 ErrMax= 2.43D-04  0.00D+00 EMaxC= 1.00D-01 BMatC= 2.34D-04 BMatP= 9.03D-04
 IDIUse=3 WtCom= 9.98D-01 WtEn= 2.43D-03
 Coeff-Com:  0.368D-04-0.338D-02 0.104D-01 0.249D-01 0.861D-01 0.355D+00
 Coeff-Com:  0.527D+00
 Coeff-En:   0.000D+00 0.000D+00 0.000D+00 0.000D+00 0.000D+00 0.123D+00
 Coeff-En:   0.877D+00
 Coeff:      0.367D-04-0.337D-02 0.104D-01 0.248D-01 0.859D-01 0.355D+00
 Coeff:      0.528D+00
 Gap=     0.127 Goal=   None    Shift=    0.000
 Gap=     0.071 Goal=   None    Shift=    0.000
 RMSDP=1.62D-05 MaxDP=2.13D-03 DE=-2.40D-04 OVMax= 3.24D-03

 Cycle   8  Pass 0  IDiag  1:
 RMSU=  1.21D-05    CP:  9.70D-01  9.72D-01  8.41D-01  5.25D-01  6.33D-01
                    CP:  8.52D-01  7.61D-01
 E= -5179.37846062513     Delta-E=       -0.000083040302 Rises=F Damp=F
 DIIS: error= 1.02D-04 at cycle   8 NSaved=   8.
 NSaved= 8 IEnMin= 8 EnMin= -5179.37846062513     IErMin= 8 ErrMin= 1.02D-04
 ErrMax= 1.02D-04  0.00D+00 EMaxC= 1.00D-01 BMatC= 3.48D-05 BMatP= 2.34D-04
 IDIUse=3 WtCom= 9.99D-01 WtEn= 1.02D-03
 Coeff-Com:  0.112D-02-0.286D-02-0.222D-01-0.300D-01-0.523D-01-0.701D-02
 Coeff-Com:  0.252D+00 0.861D+00
 Coeff-En:   0.000D+00 0.000D+00 0.000D+00 0.000D+00 0.000D+00 0.000D+00
 Coeff-En:   0.000D+00 0.100D+01
 Coeff:      0.112D-02-0.285D-02-0.222D-01-0.300D-01-0.523D-01-0.700D-02
 Coeff:      0.252D+00 0.861D+00
 Gap=     0.127 Goal=   None    Shift=    0.000
 Gap=     0.072 Goal=   None    Shift=    0.000
 RMSDP=1.07D-05 MaxDP=1.25D-03 DE=-8.30D-05 OVMax= 3.41D-03

 Cycle   9  Pass 0  IDiag  1:
 RMSU=  7.30D-06    CP:  9.70D-01  9.72D-01  8.41D-01  5.29D-01  6.48D-01
                    CP:  9.17D-01  1.03D+00  1.12D+00
 E= -5179.37848454794     Delta-E=       -0.000023922816 Rises=F Damp=F
 DIIS: error= 6.28D-05 at cycle   9 NSaved=   9.
 NSaved= 9 IEnMin= 9 EnMin= -5179.37848454794     IErMin= 9 ErrMin= 6.28D-05
 ErrMax= 6.28D-05  0.00D+00 EMaxC= 1.00D-01 BMatC= 2.09D-05 BMatP= 3.48D-05
 IDIUse=1 WtCom= 1.00D+00 WtEn= 0.00D+00
 Coeff-Com:  0.790D-03-0.118D-02-0.193D-01-0.288D-01-0.621D-01-0.110D+00
 Coeff-Com:  0.199D-01 0.609D+00 0.592D+00
 Coeff:      0.790D-03-0.118D-02-0.193D-01-0.288D-01-0.621D-01-0.110D+00
 Coeff:      0.199D-01 0.609D+00 0.592D+00
 Gap=     0.127 Goal=   None    Shift=    0.000
 Gap=     0.072 Goal=   None    Shift=    0.000
 RMSDP=6.90D-06 MaxDP=8.10D-04 DE=-2.39D-05 OVMax= 1.50D-03

 Initial convergence to 1.0D-05 achieved.  Increase integral accuracy.
 Cycle  10  Pass 1  IDiag  1:
 E= -5179.37855310514     Delta-E=       -0.000068557198 Rises=F Damp=F
 DIIS: error= 2.17D-04 at cycle   1 NSaved=   1.
 NSaved= 1 IEnMin= 1 EnMin= -5179.37855310514     IErMin= 1 ErrMin= 2.17D-04
 ErrMax= 2.17D-04  0.00D+00 EMaxC= 1.00D-01 BMatC= 7.03D-05 BMatP= 7.03D-05
 IDIUse=3 WtCom= 9.98D-01 WtEn= 2.17D-03
 Coeff-Com:  0.100D+01
 Coeff-En:   0.100D+01
 Coeff:      0.100D+01
 Gap=     0.127 Goal=   None    Shift=    0.000
 Gap=     0.072 Goal=   None    Shift=    0.000
 RMSDP=6.90D-06 MaxDP=8.10D-04 DE=-6.86D-05 OVMax= 1.58D-03

 Cycle  11  Pass 1  IDiag  1:
 RMSU=  1.03D-04    CP:  1.00D+00
 E= -5179.37856149749     Delta-E=       -0.000008392351 Rises=F Damp=F
 DIIS: error= 9.84D-05 at cycle   2 NSaved=   2.
 NSaved= 2 IEnMin= 2 EnMin= -5179.37856149749     IErMin= 2 ErrMin= 9.84D-05
 ErrMax= 9.84D-05  0.00D+00 EMaxC= 1.00D-01 BMatC= 3.03D-05 BMatP= 7.03D-05
 IDIUse=1 WtCom= 1.00D+00 WtEn= 0.00D+00
 Coeff-Com:  0.334D+00 0.666D+00
 Coeff:      0.334D+00 0.666D+00
 Gap=     0.127 Goal=   None    Shift=    0.000
 Gap=     0.071 Goal=   None    Shift=    0.000
 RMSDP=1.07D-05 MaxDP=7.10D-04 DE=-8.39D-06 OVMax= 2.68D-03

 Cycle  12  Pass 1  IDiag  1:
 RMSU=  1.07D-05    CP:  1.00D+00  1.00D+00
 E= -5179.37855318078     Delta-E=        0.000008316711 Rises=F Damp=F
 DIIS: error= 1.36D-04 at cycle   3 NSaved=   3.
 NSaved= 3 IEnMin= 2 EnMin= -5179.37856149749     IErMin= 2 ErrMin= 9.84D-05
 ErrMax= 1.36D-04  0.00D+00 EMaxC= 1.00D-01 BMatC= 6.15D-05 BMatP= 3.03D-05
 IDIUse=3 WtCom= 4.61D-01 WtEn= 5.39D-01
 Coeff-Com: -0.652D-02 0.592D+00 0.415D+00
 Coeff-En:   0.000D+00 0.612D+00 0.388D+00
 Coeff:     -0.301D-02 0.603D+00 0.400D+00
 Gap=     0.127 Goal=   None    Shift=    0.000
 Gap=     0.072 Goal=   None    Shift=    0.000
 RMSDP=6.07D-06 MaxDP=4.30D-04 DE= 8.32D-06 OVMax= 1.40D-03

 Cycle  13  Pass 1  IDiag  1:
 RMSU=  1.50D-06    CP:  1.00D+00  1.01D+00  4.56D-01
 E= -5179.37857123933     Delta-E=       -0.000018058547 Rises=F Damp=F
 DIIS: error= 1.25D-05 at cycle   4 NSaved=   4.
 NSaved= 4 IEnMin= 4 EnMin= -5179.37857123933     IErMin= 4 ErrMin= 1.25D-05
 ErrMax= 1.25D-05  0.00D+00 EMaxC= 1.00D-01 BMatC= 6.53D-07 BMatP= 3.03D-05
 IDIUse=1 WtCom= 1.00D+00 WtEn= 0.00D+00
 Coeff-Com: -0.808D-02 0.293D+00 0.179D+00 0.535D+00
 Coeff:     -0.808D-02 0.293D+00 0.179D+00 0.535D+00
 Gap=     0.127 Goal=   None    Shift=    0.000
 Gap=     0.072 Goal=   None    Shift=    0.000
 RMSDP=8.59D-07 MaxDP=7.78D-05 DE=-1.81D-05 OVMax= 2.00D-04

 Cycle  14  Pass 1  IDiag  1:
 RMSU=  7.90D-07    CP:  1.00D+00  1.01D+00  4.29D-01  1.11D+00
 E= -5179.37857156462     Delta-E=       -0.000000325286 Rises=F Damp=F
 DIIS: error= 8.35D-06 at cycle   5 NSaved=   5.
 NSaved= 5 IEnMin= 5 EnMin= -5179.37857156462     IErMin= 5 ErrMin= 8.35D-06
 ErrMax= 8.35D-06  0.00D+00 EMaxC= 1.00D-01 BMatC= 2.22D-07 BMatP= 6.53D-07
 IDIUse=1 WtCom= 1.00D+00 WtEn= 0.00D+00
 Coeff-Com:  0.160D-02-0.390D+00-0.291D+00 0.317D+00 0.136D+01
 Coeff:      0.160D-02-0.390D+00-0.291D+00 0.317D+00 0.136D+01
 Gap=     0.127 Goal=   None    Shift=    0.000
 Gap=     0.072 Goal=   None    Shift=    0.000
 RMSDP=1.56D-06 MaxDP=1.73D-04 DE=-3.25D-07 OVMax= 4.28D-04

 Cycle  15  Pass 1  IDiag  1:
 RMSU=  5.80D-07    CP:  1.00D+00  1.01D+00  4.32D-01  2.03D+00  1.52D+00
 E= -5179.37857193715     Delta-E=       -0.000000372531 Rises=F Damp=F
 DIIS: error= 7.22D-06 at cycle   6 NSaved=   6.
 NSaved= 6 IEnMin= 6 EnMin= -5179.37857193715     IErMin= 6 ErrMin= 7.22D-06
 ErrMax= 7.22D-06  0.00D+00 EMaxC= 1.00D-01 BMatC= 1.79D-07 BMatP= 2.22D-07
 IDIUse=1 WtCom= 1.00D+00 WtEn= 0.00D+00
 Coeff-Com:  0.445D-02-0.440D+00-0.312D+00 0.645D-01 0.115D+01 0.535D+00
 Coeff:      0.445D-02-0.440D+00-0.312D+00 0.645D-01 0.115D+01 0.535D+00
 Gap=     0.127 Goal=   None    Shift=    0.000
 Gap=     0.072 Goal=   None    Shift=    0.000
 RMSDP=7.81D-07 MaxDP=7.81D-05 DE=-3.73D-07 OVMax= 1.96D-04

 Cycle  16  Pass 1  IDiag  1:
 RMSU=  2.58D-07    CP:  1.00D+00  1.01D+00  4.43D-01  2.42D+00  2.02D+00
                    CP:  6.71D-01
 E= -5179.37857203241     Delta-E=       -0.000000095259 Rises=F Damp=F
 DIIS: error= 3.95D-06 at cycle   7 NSaved=   7.
 NSaved= 7 IEnMin= 7 EnMin= -5179.37857203241     IErMin= 7 ErrMin= 3.95D-06
 ErrMax= 3.95D-06  0.00D+00 EMaxC= 1.00D-01 BMatC= 1.72D-08 BMatP= 1.79D-07
 IDIUse=1 WtCom= 1.00D+00 WtEn= 0.00D+00
 Coeff-Com:  0.278D-02-0.255D+00-0.179D+00 0.136D-01 0.636D+00 0.348D+00
 Coeff-Com:  0.433D+00
 Coeff:      0.278D-02-0.255D+00-0.179D+00 0.136D-01 0.636D+00 0.348D+00
 Coeff:      0.433D+00
 Gap=     0.127 Goal=   None    Shift=    0.000
 Gap=     0.072 Goal=   None    Shift=    0.000
 RMSDP=1.49D-07 MaxDP=1.10D-05 DE=-9.53D-08 OVMax= 3.05D-05

 Cycle  17  Pass 1  IDiag  1:
 RMSU=  9.80D-08    CP:  1.00D+00  1.01D+00  4.43D-01  2.47D+00  2.05D+00
                    CP:  7.35D-01  7.15D-01
 E= -5179.37857203753     Delta-E=       -0.000000005126 Rises=F Damp=F
 DIIS: error= 1.35D-06 at cycle   8 NSaved=   8.
 NSaved= 8 IEnMin= 8 EnMin= -5179.37857203753     IErMin= 8 ErrMin= 1.35D-06
 ErrMax= 1.35D-06  0.00D+00 EMaxC= 1.00D-01 BMatC= 2.36D-09 BMatP= 1.72D-08
 IDIUse=1 WtCom= 1.00D+00 WtEn= 0.00D+00
 Coeff-Com:  0.106D-02-0.922D-01-0.641D-01-0.219D-02 0.222D+00 0.135D+00
 Coeff-Com:  0.286D+00 0.514D+00
 Coeff:      0.106D-02-0.922D-01-0.641D-01-0.219D-02 0.222D+00 0.135D+00
 Coeff:      0.286D+00 0.514D+00
 Gap=     0.127 Goal=   None    Shift=    0.000
 Gap=     0.072 Goal=   None    Shift=    0.000
 RMSDP=4.71D-08 MaxDP=4.71D-06 DE=-5.13D-09 OVMax= 1.17D-05

 Cycle  18  Pass 1  IDiag  1:
 RMSU=  3.45D-08    CP:  1.00D+00  1.01D+00  4.43D-01  2.48D+00  2.06D+00
                    CP:  7.40D-01  7.77D-01  7.65D-01
 E= -5179.37857203826     Delta-E=       -0.000000000728 Rises=F Damp=F
 DIIS: error= 3.67D-07 at cycle   9 NSaved=   9.
 NSaved= 9 IEnMin= 9 EnMin= -5179.37857203826     IErMin= 9 ErrMin= 3.67D-07
 ErrMax= 3.67D-07  0.00D+00 EMaxC= 1.00D-01 BMatC= 2.54D-10 BMatP= 2.36D-09
 IDIUse=1 WtCom= 1.00D+00 WtEn= 0.00D+00
 Coeff-Com: -0.948D-04 0.110D-01 0.804D-02-0.372D-02-0.308D-01-0.120D-01
 Coeff-Com:  0.420D-01 0.244D+00 0.742D+00
 Coeff:     -0.948D-04 0.110D-01 0.804D-02-0.372D-02-0.308D-01-0.120D-01
 Coeff:      0.420D-01 0.244D+00 0.742D+00
 Gap=     0.127 Goal=   None    Shift=    0.000
 Gap=     0.072 Goal=   None    Shift=    0.000
 RMSDP=2.28D-08 MaxDP=2.44D-06 DE=-7.28D-10 OVMax= 5.71D-06

 Cycle  19  Pass 1  IDiag  1:
 RMSU=  2.00D-08    CP:  1.00D+00  1.01D+00  4.43D-01  2.48D+00  2.07D+00
                    CP:  7.43D-01  7.96D-01  8.45D-01  9.26D-01
 E= -5179.37857203835     Delta-E=       -0.000000000093 Rises=F Damp=F
 DIIS: error= 1.97D-07 at cycle  10 NSaved=  10.
 NSaved=10 IEnMin=10 EnMin= -5179.37857203835     IErMin=10 ErrMin= 1.97D-07
 ErrMax= 1.97D-07  0.00D+00 EMaxC= 1.00D-01 BMatC= 9.31D-11 BMatP= 2.54D-10
 IDIUse=1 WtCom= 1.00D+00 WtEn= 0.00D+00
 Coeff-Com: -0.358D-03 0.327D-01 0.230D-01-0.121D-02-0.813D-01-0.459D-01
 Coeff-Com: -0.600D-01-0.123D-01 0.417D+00 0.728D+00
 Coeff:     -0.358D-03 0.327D-01 0.230D-01-0.121D-02-0.813D-01-0.459D-01
 Coeff:     -0.600D-01-0.123D-01 0.417D+00 0.728D+00
 Gap=     0.127 Goal=   None    Shift=    0.000
 Gap=     0.072 Goal=   None    Shift=    0.000
 RMSDP=1.61D-08 MaxDP=1.60D-06 DE=-9.28D-11 OVMax= 4.83D-06

 Cycle  20  Pass 1  IDiag  1:
 RMSU=  1.20D-08    CP:  1.00D+00  1.01D+00  4.43D-01  2.48D+00  2.07D+00
                    CP:  7.45D-01  8.05D-01  8.75D-01  1.16D+00  1.26D+00
 E= -5179.37857203850     Delta-E=       -0.000000000144 Rises=F Damp=F
 DIIS: error= 1.13D-07 at cycle  11 NSaved=  11.
 NSaved=11 IEnMin=11 EnMin= -5179.37857203850     IErMin=11 ErrMin= 1.13D-07
 ErrMax= 1.13D-07  0.00D+00 EMaxC= 1.00D-01 BMatC= 3.56D-11 BMatP= 9.31D-11
 IDIUse=1 WtCom= 1.00D+00 WtEn= 0.00D+00
 Coeff-Com: -0.164D-03 0.142D-01 0.986D-02 0.588D-03-0.340D-01-0.210D-01
 Coeff-Com: -0.483D-01-0.958D-01-0.260D-01 0.433D+00 0.767D+00
 Coeff:     -0.164D-03 0.142D-01 0.986D-02 0.588D-03-0.340D-01-0.210D-01
 Coeff:     -0.483D-01-0.958D-01-0.260D-01 0.433D+00 0.767D+00
 Gap=     0.127 Goal=   None    Shift=    0.000
 Gap=     0.072 Goal=   None    Shift=    0.000
 RMSDP=1.22D-08 MaxDP=1.15D-06 DE=-1.44D-10 OVMax= 3.62D-06

 Cycle  21  Pass 1  IDiag  1:
 RMSU=  6.72D-09    CP:  1.00D+00  1.01D+00  4.43D-01  2.48D+00  2.07D+00
                    CP:  7.46D-01  8.10D-01  8.97D-01  1.31D+00  1.67D+00
                    CP:  1.09D+00
 E= -5179.37857203855     Delta-E=       -0.000000000051 Rises=F Damp=F
 DIIS: error= 8.15D-08 at cycle  12 NSaved=  12.
 NSaved=12 IEnMin=12 EnMin= -5179.37857203855     IErMin=12 ErrMin= 8.15D-08
 ErrMax= 8.15D-08  0.00D+00 EMaxC= 1.00D-01 BMatC= 1.44D-11 BMatP= 3.56D-11
 IDIUse=1 WtCom= 1.00D+00 WtEn= 0.00D+00
 Coeff-Com:  0.522D-04-0.538D-02-0.388D-02 0.904D-03 0.143D-01 0.702D-02
 Coeff-Com: -0.535D-02-0.619D-01-0.216D+00-0.494D-01 0.514D+00 0.805D+00
 Coeff:      0.522D-04-0.538D-02-0.388D-02 0.904D-03 0.143D-01 0.702D-02
 Coeff:     -0.535D-02-0.619D-01-0.216D+00-0.494D-01 0.514D+00 0.805D+00
 Gap=     0.127 Goal=   None    Shift=    0.000
 Gap=     0.072 Goal=   None    Shift=    0.000
 RMSDP=9.66D-09 MaxDP=9.80D-07 DE=-5.09D-11 OVMax= 2.98D-06

 SCF Done:  E(UB3LYP) =  -5179.37857204     A.U. after   21 cycles
            NFock= 21  Conv=0.97D-08     -V/T= 2.0050
 <Sx>= 0.0000 <Sy>= 0.0000 <Sz>= 0.5000 <S**2>= 0.7740 S= 0.5119
 <L.S>=  0.00000000000    
 KE= 5.153731134147D+03 PE=-2.654899898831D+04 EE= 9.049299509265D+03
 Annihilation of the first spin contaminant:
 S**2 before annihilation     0.7740,   after     0.7505
 Leave Link  502 at Fri Jun 13 10:55:50 2025, MaxMem=  7516192768 cpu:            5017.6 elap:             209.7
 (Enter /share/apps/softwares/gaussian/16/g16/l801.exe)
 DoSCS=F DFT=T ScalE2(SS,OS)=  1.000000  1.000000
 Range of M.O.s used for correlation:     1   832
 NBasis=   832 NAE=   195 NBE=   194 NFC=     0 NFV=     0
 NROrb=    832 NOA=   195 NOB=   194 NVA=   637 NVB=   638

 **** Warning!!: The smallest beta delta epsilon is  0.71949447D-01

 Leave Link  801 at Fri Jun 13 10:55:51 2025, MaxMem=  7516192768 cpu:              10.0 elap:               0.6
 (Enter /share/apps/softwares/gaussian/16/g16/l1101.exe)
 Using compressed storage, NAtomX=    66.
 Will process     67 centers per pass.
 R6Disp: Adding Grimme-D3(BJ) dispersion energy 1st derivatives to the gradient.
 Leave Link 1101 at Fri Jun 13 10:55:56 2025, MaxMem=  7516192768 cpu:              85.2 elap:               3.7
 (Enter /share/apps/softwares/gaussian/16/g16/l1102.exe)
 Symmetrizing basis deriv contribution to polar:
 IMax=3 JMax=2 DiffMx= 0.00D+00
 Leave Link 1102 at Fri Jun 13 10:56:07 2025, MaxMem=  7516192768 cpu:               5.2 elap:               0.4
 (Enter /share/apps/softwares/gaussian/16/g16/l1110.exe)
 Forming Gx(P) for the SCF density, NAtomX=    66.
 Integral derivatives from FoFJK, PRISM(SPDF).
 Do as many integral derivatives as possible in FoFJK.
 G2DrvN: MDV=    7516185966.
 G2DrvN: will do    67 centers at a time, making    1 passes.
 Calling FoFCou, ICntrl=  3107 FMM=T I1Cent=   0 AccDes= 0.00D+00.
 FoFJK:  IHMeth= 1 ICntrl=    3107 DoSepK=F KAlg= 0 I1Cent=           0 FoldK=F
 IRaf=         0 NMat=       1 IRICut=       1 DoRegI=T DoRafI=F ISym2E= 0 IDoP0=0 IntGTp=1.
 FoFCou: FMM=T IPFlag=           0 FMFlag=      100000 FMFlg1=        2001
         NFxFlg=           0 DoJE=F BraDBF=F KetDBF=F FulRan=T
         wScrn=  0.000000 ICntrl=      3107 IOpCl=  1 I1Cent=           0 NGrid=           0
         NMat0=    1 NMatS0=      1 NMatT0=    0 NMatD0=    1 NMtDS0=    0 NMtDT0=    0
 Symmetry not used in FoFCou.
 FMM levels:  10  Number of levels for PrismC:   9
 End of G2Drv F.D. properties file   721 does not exist.
 End of G2Drv F.D. properties file   722 does not exist.
 End of G2Drv F.D. properties file   788 does not exist.
 Leave Link 1110 at Fri Jun 13 11:07:55 2025, MaxMem=  7516192768 cpu:           16950.3 elap:             707.0
 (Enter /share/apps/softwares/gaussian/16/g16/l1002.exe)
 Minotr:  UHF open shell wavefunction.
          IDoAtm=11111111111111111111111111111111111111111111111111
          IDoAtm=1111111111111111
          Direct CPHF calculation.
          Differentiating once with respect to nuclear coordinates.
          Requested convergence is 1.0D-08 RMS, and 1.0D-07 maximum.
          Secondary convergence is 1.0D-12 RMS, and 1.0D-12 maximum.
          NewPWx=T KeepS1=F KeepF1=F KeepIn=T MapXYZ=F SortEE=F KeepMc=T.
        20187 words used for storage of precomputed grid.
 Two-electron integrals replicated using symmetry.
          MDV=    7516192768 using IRadAn=       1.
          Solving linear equations simultaneously, MaxMat=      72.
 FoF2E skips out because all densities are zero.
 CalDSu exits because no D1Ps are significant.
 FoFJK:  IHMeth= 1 ICntrl=       0 DoSepK=F KAlg= 0 I1Cent=           0 FoldK=F
 IRaf= 620000000 NMat=      72 IRICut=       1 DoRegI=T DoRafI=F ISym2E= 2 IDoP0=0 IntGTp=1.
 FoFCou: FMM=T IPFlag=           0 FMFlag=      100000 FMFlg1=        2001
         NFxFlg=           0 DoJE=F BraDBF=F KetDBF=F FulRan=T
         wScrn=  0.000000 ICntrl=         0 IOpCl=  1 I1Cent=           0 NGrid=           0
         NMat0=   72 NMatS0=     72 NMatT0=    0 NMatD0=   72 NMtDS0=    0 NMtDT0=    0
 Symmetry not used in FoFCou.
 FMM levels:  10  Number of levels for PrismC:   9
          There are   201 degrees of freedom in the 1st order CPHF.  IDoFFX=6 NUNeed=     0.
    195 vectors produced by pass  0 Test12= 2.48D-13 1.00D-09 XBig12= 3.30D-01 2.21D-01.
 AX will form    72 AO Fock derivatives at one time.
    195 vectors produced by pass  1 Test12= 2.48D-13 1.00D-09 XBig12= 7.09D-02 7.04D-02.
    195 vectors produced by pass  2 Test12= 2.48D-13 1.00D-09 XBig12= 2.13D-03 9.90D-03.
    195 vectors produced by pass  3 Test12= 2.48D-13 1.00D-09 XBig12= 3.55D-05 8.08D-04.
    195 vectors produced by pass  4 Test12= 2.48D-13 1.00D-09 XBig12= 3.49D-07 5.06D-05.
    195 vectors produced by pass  5 Test12= 2.48D-13 1.00D-09 XBig12= 1.94D-09 3.50D-06.
    160 vectors produced by pass  6 Test12= 2.48D-13 1.00D-09 XBig12= 1.12D-11 2.02D-07.
     63 vectors produced by pass  7 Test12= 2.48D-13 1.00D-09 XBig12= 5.18D-14 1.27D-08.
      7 vectors produced by pass  8 Test12= 2.48D-13 1.00D-09 XBig12= 3.05D-15 1.77D-09.
      5 vectors produced by pass  9 Test12= 2.48D-13 1.00D-09 XBig12= 2.93D-15 1.90D-09.
      5 vectors produced by pass 10 Test12= 2.48D-13 1.00D-09 XBig12= 3.33D-15 2.00D-09.
      5 vectors produced by pass 11 Test12= 2.48D-13 1.00D-09 XBig12= 2.82D-15 1.83D-09.
      4 vectors produced by pass 12 Test12= 2.48D-13 1.00D-09 XBig12= 3.53D-15 1.90D-09.
      2 vectors produced by pass 13 Test12= 2.48D-13 1.00D-09 XBig12= 2.21D-15 1.39D-09.
 InvSVY:  IOpt=1 It=  1 EMax= 1.67D-15
 Solved reduced A of dimension  1421 with   201 vectors.
 End of Minotr F.D. properties file   721 does not exist.
 End of Minotr F.D. properties file   722 does not exist.
 End of Minotr F.D. properties file   788 does not exist.
 Leave Link 1002 at Fri Jun 13 12:02:29 2025, MaxMem=  7516192768 cpu:           78267.4 elap:            3263.0
 (Enter /share/apps/softwares/gaussian/16/g16/l601.exe)
 Copying SCF densities to generalized density rwf, IOpCl= 1 IROHF=0.

 **********************************************************************

            Population analysis using the SCF Density.

 **********************************************************************

 Orbital symmetries:
 Alpha Orbitals:
       Occupied  (A) (A) (A) (A) (A) (A) (A) (A) (A) (A) (A) (A)
                 (A) (A) (A) (A) (A) (A) (A) (A) (A) (A) (A) (A)
[...]
 000125,0.00000048,-0.00000007,0.00000011,0.00000022,-0.00000012,0.0000
 0007,0.00000009,0.00000045,-0.00000084,-0.00000032,0.00000006,-0.00000
 009,-0.00000014,-0.00000057,-0.00000107,-0.00000038,-0.00000054,0.0000
 0004,-0.00000075,-0.00000010,-0.00000003,-0.00000018,-0.00000109,-0.00
 000094,-0.00000247,0.00000088,-0.00000080,-0.00000219,-0.00084929,0.00
 016357,0.00531805,0.00086822,0.00023289,0.00527340,-0.00108048,0.00024
 866,-0.00012234,-0.02071846,0.00328027,-0.00026446,0.02033590,0.003719
 03,-0.00022898,0.00105604,0.00026145,-0.00011123,-0.00014331,0.0000194
 7,-0.00019236,-0.00016750,-0.00009077,0.00035604,-0.00143582,-0.001018
 89,-0.00254223,0.00147657,-0.00102029,-0.00250959,0.00016662,-0.000082
 54,0.00035172,0.00014791,0.00002399,-0.00019308,0.00036479,0.00004461,
 -0.00015838,0.00005033,0.00000818,0.00003289,0.00066253,-0.00010069,0.
 00030278,-0.00036506,0.00004156,-0.00016359,-0.00064665,-0.00010144,0.
 00028959,-0.00004933,0.00000772,0.00003229,0.00001135,0.00011635,0.000
 13248,-0.00001435,0.00011713,0.00013144,0.00001341,-0.00079378,0.00017
 073,-0.00326108,-0.04812067,0.01273022,0.00357282,0.04350749,0.0000000
 7,-0.00000627,-0.00001546,0.00002331,-0.00003466,-0.00000167,0.0001252
 3,0.00002470,0.00005177,0.00000821,-0.00070830,-0.00056371,-0.00012579
 ,0.00002183,0.00005173,-0.00002251,-0.00003518,-0.00000168,0.00000001,
 -0.00000009,0.00000004,0.00000224,-0.00000057,-0.00000036,-0.00000276,
 0.00000107,0.00000203,0.,-0.00000009,-0.00000016,0.00000274,0.00000114
 ,0.00000204,-0.00000224,-0.00000062,-0.00000037,0.00001258,-0.00000018
 ,-0.00000007,0.00000713,0.00000627,-0.00000899,-0.00000727,0.00000611,
 -0.00000899,-0.00001258,-0.00000047,-0.00000008,-0.00000027,0.00000044
 ,0.00000032,0.00000026,0.00000044,0.00000032,0.,0.00000054,0.00000021,
 -0.00000008,0.00000016,0.00000013,-0.00000023,0.00000005,0.00000008,-0
 .00000016,0.00000018,0.00000005,0.00000004,-0.00000040,-0.00000004,0.0
 0000018,-0.00000024,-0.00000039,-0.00000050,0.00000092,0.00000029,0.00
 000013,0.00000006,0.00000012,0.00000007,0.00000016,0.00000012,0.000000
 15,0.00000019,0.00000005,0.00000023,0.00000006,0.00000009,-0.00000018,
 -0.00000024,-0.00000039,-0.00000003,-0.00000040,-0.00000004,0.00000048
 ,0.00000093,0.00000029,-0.00000018,0.00000004,0.00000024,-0.00000013,0
 .00000005,0.00000012,0.00000040,-0.00000083,-0.00000031,0.00000004,-0.
 00000014,-0.00000011,-0.00000039,-0.00000084,-0.00000031,-0.00000009,-
 0.00000009,-0.00000014,-0.00000004,-0.00000014,-0.00000011,-0.00000094
 ,-0.00000095,-0.00000202,0.00000096,-0.00000093,-0.00000201,0.00055514
 ,0.00534240,0.00119772,-0.00067725,0.00532915,0.00119672,0.00096051,-0
 .00011926,0.00020740,0.01881424,0.00011471,0.00338259,-0.01881842,-0.0
 0031631,0.00337569,-0.00095793,-0.00014141,0.00020721,0.00012856,-0.00
 018197,-0.00001717,0.00011521,0.00033996,-0.00004717,0.00130495,-0.002
 52397,-0.00152883,-0.00124598,-0.00255375,-0.00152878,-0.00012299,0.00
 033731,-0.00004729,-0.00012427,-0.00018484,-0.00001723,-0.00033714,-0.
 00015941,0.00001537,-0.00004770,0.00003492,0.00001553,-0.00057764,0.00
 030124,-0.00002866,0.00034070,-0.00015156,0.00001541,0.00057083,0.0003
 1462,-0.00002865,0.00004690,0.00003601,0.00001554,-0.00000718,0.000137
 73,0.00013935,0.00000396,0.00013788,0.00013934,-0.00000095,0.00010187,
 -0.00071509,-0.00019986,0.01255370,-0.04526089,0.00026790,-0.01802268,
 0.03980919,0.00011575,0.00000429,-0.00001265,-0.00000598,-0.00004831,-
 0.00006721,0.00002093,0.00000538,0.00000748,0.00000320,0.00000226,0.00
 000427,0.00000474,0.00001985,-0.00000572,-0.00002149,0.00001316,0.0000
 1013,0.00001201,-0.00027515,0.00002969,0.00055655,-0.00007213,-0.00018
 468,-0.00050836,0.00125255,0.00000022,0.00007074,0.00162227,-0.0014524
 4,0.00006838,0.00162569,-0.00037890,0.00065643,-0.00007684,0.00009220,
 0.00001577,0.00000774,0.00003734,0.00000483,-0.00000692,0.00000458,-0.
 00000262,0.00000227,0.00000491,0.00000201,-0.00001033,0.00001463,0.000
 00704,-0.00003233,0.00003717,0.00005051,-0.00004298,0.00001229,-0.0029
 5154,0.00191345,-0.00069886,-0.01209565,-0.00486788,0.01496766,0.00253
 248,-0.00044424,0.00133179,-0.09012863,-0.00415267,0.06648226,-0.00156
 978,-0.00174389,0.00121639,-0.02545494,0.00241099,0.02828533,0.0047843
 1,0.00390252,-0.00089669,-0.00004542,-0.00007556,-0.00007300,0.0005762
 2,-0.00015794,0.00016447,-0.00032545,-0.00013502,-0.00024880,0.0001356
 5,-0.00029176,0.00037999,0.00002995,0.00000127,0.00002360,0.00002711,0
 .00014298,-0.00007181,0.00004726,0.00005211,0.00005473,-0.00002110,-0.
 00001453,0.00000765,-0.00002454,-0.00001681,0.00000716,-0.00126934,0.0
 0078643,0.00087109,-0.00073017,-0.00068094,0.00082172,-0.00006226,-0.0
 0009644,-0.00003432,0.00014486,0.00010892,-0.00000493,-0.00006400,0.00
 029130,-0.00005707,-0.00019926,-0.00012517,-0.00032264,0.00034399,-0.0
 0013730,0.00023101,-0.00001080,-0.00000570,0.00000829,-0.00002080,-0.0
 0000759,0.00000434,-0.00000169,0.00000174,-0.00000505,-0.00000323,-0.0
 0000075,0.00000041,-0.00000333,0.00000041,-0.00000158,0.00001907,0.000
 00642,-0.00000302,-0.00000284,-0.00000023,0.00000012,0.00000068,-0.000
 00598,0.00000848,0.00000549,0.00000006,-0.00000045,-0.00000617,-0.0000
 0117,0.00000053,-0.00000243,-0.00000447,0.00000205,0.00000245,-0.00000
 802,0.00000794,0.00000196,0.00000086,-0.00000092,0.00000185,0.00000318
 ,-0.00000273,-0.00000376,-0.00000013,0.00000050,0.00000623,0.00001032,
 -0.00000945,-0.00000425,0.00000133,-0.00000106,0.00000371,0.00000565,-
 0.00000621,-0.00000357,0.00000331,-0.00000263,-0.00000065,-0.00000185,
 0.00000179,0.00003099,0.00000530,0.00000110,-0.00000068,0.00000034,-0.
 00000088,-0.00000374,0.00000045,0.00000009,0.12641098,0.00000159,-0.00
 001228,-0.00000050,0.00003868,-0.00002908,-0.00005452,0.00001301,-0.00
 002097,0.00000931,-0.00000119,-0.00000770,-0.00000177,0.00002707,0.000
 02980,-0.00000274,0.00001500,0.00003228,0.00002494,0.00004656,0.000372
 10,0.00034331,0.00043696,-0.00009579,-0.00038736,-0.00076496,-0.002045
 16,-0.00041610,0.00344945,-0.00579947,0.00394732,0.00024818,-0.0018098
 2,0.00196740,-0.00046551,0.00025031,-0.00015772,-0.00000624,-0.0000045
 0,0.00000275,0.00000866,0.00000325,0.00000440,0.00000679,-0.00000386,-
 0.00000250,-0.00000666,-0.00000103,0.00000920,0.00002219,0.00000431,0.
 00000506,0.00003567,-0.00007023,-0.00000195,-0.00280825,-0.00135861,0.
 00204711,-0.01912256,0.00010991,0.01801965,0.00302305,-0.00378392,-0.0
 0008870,-0.00364044,-0.03955922,0.00747010,-0.00036967,0.00156904,-0.0
 0019054,0.01897065,0.00331978,-0.01717392,0.00044234,-0.00248064,0.001
 50927,-0.00006127,0.00014968,-0.00011350,0.00014644,0.00002151,0.00030
 725,0.00008326,-0.00006631,0.00003030,-0.00003877,0.00009816,-0.000009
 16,-0.00000054,-0.00000407,-0.00001079,0.00002719,-0.00001334,-0.00001
 173,0.00001589,0.00002809,0.00001279,-0.00000054,0.00000432,0.00000379
 ,0.00000293,0.00000394,0.00000239,0.00074082,-0.00029020,-0.00053005,-
 0.00110061,-0.00046855,0.00105125,-0.00001010,-0.00001285,-0.00000617,
 -0.00010388,-0.00007427,0.00000188,-0.00012862,-0.00014875,0.00018157,
 0.00005592,0.00011272,-0.00008663,-0.00001978,0.00026754,0.00024235,0.
 00001468,0.00000915,-0.00000283,0.00001204,-0.00001336,0.00000706,-0.0
 0000619,-0.00000165,0.00000280,0.00000174,-0.00000030,-0.00000109,0.00
 000165,0.00000059,0.00000063,0.00000132,0.00000361,-0.00000510,-0.0000
 0030,-0.00000041,0.00000041,0.00000126,0.00000327,-0.00000469,0.000002
 39,-0.00000090,0.00000067,-0.00000118,0.00000068,-0.00000034,0.0000005
 7,-0.00000601,0.00000806,0.00000046,-0.00000116,0.00000139,-0.00000087
 ,0.00000227,-0.00000267,-0.00000079,0.00000039,0.00000028,0.00000200,-
 0.00000035,-0.00000020,0.00000049,0.00000106,-0.00000012,0.00000189,0.
 00000061,-0.00000013,-0.00000029,0.00000217,-0.00000300,0.00000141,-0.
 00000120,0.00000094,0.00000205,0.00000152,-0.00000141,-0.00002311,0.00
 000194,-0.00000114,0.00000434,0.00000019,-0.00000009,0.00000176,0.0000
 0009,-0.00000008,0.00012467,0.05101695,0.00001004,0.00001505,0.0000133
 4,-0.00003439,0.00002721,0.00006846,-0.00001438,-0.00000043,-0.0000089
 6,-0.00001667,0.00000180,-0.00000269,-0.00000620,-0.00002646,0.0000103
 8,-0.00002381,-0.00001260,0.00000103,-0.00023489,-0.00011558,-0.000014
 41,0.00004726,0.00003081,0.00022163,-0.00007265,0.00132924,-0.00069777
 ,-0.00150021,0.00403465,-0.00126894,-0.00040942,0.00002498,-0.00130740
 ,-0.00015275,-0.00019011,0.00021772,0.00000010,-0.00000351,-0.00004095
 ,-0.00000832,0.00000333,-0.00000763,-0.00000274,0.00000165,-0.00000353
 ,0.00000322,0.00000727,-0.00001892,-0.00000664,-0.00000057,-0.00001883
 ,-0.00007917,0.00010754,-0.00002041,0.00083938,-0.00207429,-0.00126282
 ,0.01894092,0.00517635,-0.01658511,0.00027069,0.00215370,0.00287226,0.
 06764864,0.00809280,-0.09102918,0.00116302,0.00084780,-0.00196111,0.02
 300976,-0.00136638,-0.01656780,-0.00007984,-0.00120733,0.00492537,-0.0
 0019101,-0.00004280,-0.00017807,-0.00011916,0.00006132,-0.00021616,0.0
 0013519,-0.00001347,0.00011332,-0.00041292,0.00055562,-0.00055325,0.00
 005092,0.00000827,0.00005719,0.00003475,-0.00022534,0.00013250,-0.0000
 8260,-0.00002271,-0.00011280,0.00001487,0.00000839,-0.00000535,0.00002
 483,0.00001944,-0.00000439,0.00090285,-0.00055857,-0.00060856,0.000923
 63,0.00069810,-0.00087922,0.00004661,0.00005713,0.00003668,0.00000493,
 0.00000202,0.00001356,0.00001023,-0.00048805,0.00055566,0.00040159,-0.
 00014378,0.00054872,-0.00010745,-0.00033494,0.00021642,-0.00000199,0.0
 0000149,-0.00000558,0.00001082,0.00001397,-0.00000981,0.00000618,-0.00
 000107,0.00000379,0.00000253,0.00000133,-0.00000012,0.00000283,-0.0000
 0160,0.00000153,-0.00002046,-0.00000782,0.00000675,0.00000200,0.000000
 84,0.00000006,-0.00000136,0.00000246,-0.00000486,-0.00000693,0.0000003
 6,0.00000038,0.00000701,0.00000115,-0.00000023,0.00000175,0.00000909,-
 0.00000898,-0.00000289,0.00000891,-0.00000867,-0.00000057,-0.00000217,
 0.00000274,-0.00000113,-0.00000341,0.00000210,0.00000209,0.00000017,-0
 .00000050,-0.00000591,-0.00001060,0.00000957,0.00000276,-0.00000184,0.
 00000107,-0.00000386,-0.00000744,0.00000792,0.00000222,-0.00000239,0.0
 0000158,-0.00000061,0.00000058,-0.00000095,-0.00000592,-0.00000485,-0.
 00000037,-0.00000259,-0.00000020,0.00000114,0.00000231,-0.00000070,-0.
 00000014,-0.10925386,-0.01627952,0.12448001,0.00000094,-0.00000279,-0.
 00000188,-0.00000720,0.00001000,0.00001114,-0.00000014,-0.00000245,-0.
 00000167,-0.00000341,0.00000030,-0.00000021,0.00000054,-0.00000356,0.0
 0000008,0.00000005,-0.00000037,-0.00000066,-0.00000743,0.00001264,0.00
 001428,-0.00000127,-0.00001580,-0.00000201,-0.00003447,0.00001328,0.00
 005218,0.00010872,0.00004044,-0.00003801,0.00001441,-0.00003663,0.0000
 0905,-0.00002423,-0.00001188,-0.00001304,0.00000035,-0.00000005,-0.000
 00538,-0.00000297,0.00000096,-0.00000066,0.00000045,-0.00000079,-0.000
 00056,0.00000010,-0.00000057,-0.00000187,-0.00000720,0.00000790,-0.000
 00697,-0.00000200,0.00000429,-0.00000080,0.00037070,0.00084285,-0.0001
 3638,0.00099317,0.00232033,0.00334885,-0.00095184,0.00042685,0.0000592
 5,0.00557269,0.01528512,-0.00732222,-0.00123125,0.00202618,0.00511087,
 -0.06086967,-0.05734836,0.04084735,-0.00266732,-0.02100329,0.01020537,
 0.00010304,-0.00102210,0.00050204,-0.00015082,0.00024331,-0.00001105,0
 .00005549,0.00000681,0.00006494,-0.00000777,-0.00002328,0.00000699,0.0
 0000967,0.00002771,-0.00001663,-0.00000560,0.00002639,-0.00000506,-0.0
 0001175,-0.00001387,-0.00000042,0.00000502,0.00000491,-0.00000059,0.00
 000170,-0.00000216,-0.00000050,-0.00052126,-0.00079808,-0.00162287,-0.
 00002813,-0.00004910,-0.00020397,0.00000480,0.00001098,0.00000126,-0.0
 0002143,-0.00000005,-0.00001506,-0.00002401,0.00001106,-0.00005212,0.0
 0000231,-0.00000120,0.00000255,0.00000836,-0.00002839,-0.00001575,0.00
 000168,0.00000103,-0.00000108,0.00000327,0.00000142,-0.00000077,0.0000
 0010,-0.00000067,0.00000038,0.00000084,0.00000038,-0.00000006,0.000000
 80,-0.00000011,0.00000052,-0.00000301,-0.00000186,-0.00000023,0.000000
 25,-0.00000044,-0.00000006,0.00000006,0.00000113,-0.00000079,-0.000001
 05,-0.00000027,-0.00000006,0.00000087,0.00000004,-0.00000041,0.0000005
 9,0.00000176,0.00000027,-0.00000054,0.00000096,-0.00000218,-0.00000046
 ,0.,-0.00000032,-0.00000036,-0.00000012,0.00000056,0.00000076,0.000000
 22,0.,-0.00000131,-0.00000242,0.00000161,0.00000086,-0.00000014,0.0000
 0046,-0.00000080,-0.00000048,0.00000191,0.00000057,-0.00000047,0.00000
 067,0.00000016,0.00000071,-0.00000009,-0.00000416,-0.00000160,-0.00000
 073,-0.00000025,-0.00000034,-0.00000017,0.00000075,0.00000008,0.000000
 18,-0.00114567,0.00064929,-0.00166263,0.06047470,-0.00000007,0.0000006
 8,-0.00000031,0.00000198,-0.00000320,-0.00000453,0.00000105,0.00000079
 ,0.00000146,0.00000129,-0.00000002,0.00000030,-0.00000026,0.00000189,-
 0.00000080,0.00000056,0.00000040,-0.00000037,0.00001802,-0.00000498,0.
 00000201,0.00000553,0.00000682,0.00000364,0.00000910,0.00002297,-0.000
 01691,-0.00017455,-0.00002793,-0.00007792,0.00007056,0.00003663,0.0000
 2192,0.00001042,-0.00000113,-0.00001545,0.00000122,0.00000101,0.000002
 52,0.00000031,-0.00000033,0.00000014,0.00000005,0.00000005,0.00000034,
 -0.00000007,-0.00000087,0.00000116,0.00000481,-0.00000171,0.00000183,0
 .00000694,-0.00000386,0.00000082,-0.00053901,-0.00032731,0.00045947,0.
 00368106,-0.00161416,-0.00122091,0.00050534,0.00018432,-0.00066960,-0.
 00714296,-0.01745517,0.01205696,0.00101561,0.00146286,0.00021964,-0.05
 666687,-0.27510855,0.11759376,0.00156826,0.00228250,-0.00131602,0.0001
 0091,0.00027959,-0.00003091,0.00013742,-0.00019594,0.00000231,-0.00007
 101,-0.00000018,-0.00008586,0.00011332,-0.00010068,0.00012443,-0.00002
 185,-0.00001981,0.00000222,-0.00002120,0.00000825,-0.00001544,0.000019
 26,0.00001494,0.00001330,-0.00000463,-0.00000705,-0.00000209,-0.000004
 41,-0.00000645,-0.00000009,-0.00010672,0.00095784,-0.00093437,-0.00006
 634,0.00006738,-0.00004022,-0.00001281,-0.00001772,-0.00000830,0.00001
 393,0.00000466,0.00000804,-0.00004329,0.00006061,-0.00008664,-0.000022
 68,-0.00000884,-0.00002833,0.00000541,0.00001163,0.00002327,-0.0000007
 8,-0.00000017,0.00000043,-0.00000147,-0.00000055,0.00000030,0.00000010
 ,-0.00000001,-0.00000029,-0.00000021,-0.00000002,0.00000002,-0.0000002
 1,0.00000017,-0.00000011,0.00000161,0.00000026,-0.00000039,-0.00000010
 ,0.00000005,-0.00000012,-0.00000003,-0.00000026,0.00000048,0.00000021,
 -0.00000004,-0.00000008,-0.00000039,-0.00000015,-0.00000009,-0.0000000
 9,-0.00000012,0.00000033,-0.00000014,-0.00000065,0.00000020,0.00000016
 ,-0.00000011,0.00000002,0.00000010,0.00000012,-0.00000004,-0.00000025,
 0.00000002,0.00000007,0.00000055,0.00000052,-0.00000071,-0.00000033,0.
 00000018,-0.00000001,0.00000041,0.00000058,-0.00000011,-0.00000017,0.0
 0000021,-0.00000011,-0.00000024,-0.00000006,0.00000032,0.00000205,0.00
 000032,0.00000002,-0.00000007,-0.00000009,-0.00000013,-0.00000027,0.00
 000010,0.00000005,-0.00078848,0.00076472,-0.00015428,0.05839439,0.2887
 3507,0.00000523,-0.00000292,-0.00000300,-0.00000553,0.00000659,0.00000
 183,0.00000217,-0.00000110,-0.00000167,-0.00000180,-0.00000006,0.00000
 002,0.00000167,-0.00000066,-0.00000074,-0.00000047,0.00000077,-0.00000
 068,-0.00001645,0.00000963,0.00001958,0.00003032,-0.00001260,-0.000009
 00,-0.00008688,0.00002564,0.00006171,0.00001718,-0.00003783,-0.0000989
 6,0.00001434,0.00005044,0.00003884,0.00000475,-0.00001044,-0.00002562,
 0.00000008,-0.00000064,0.00000087,-0.00000178,0.00000008,0.00000084,0.
 00000058,-0.00000083,0.00000011,-0.00000035,-0.00000103,0.00000025,-0.
 00000558,0.00000754,-0.00000454,0.00000439,-0.00000301,0.00000066,-0.0
 0021878,0.00009592,0.00044198,0.00374574,-0.00116089,0.00254456,0.0000
 4734,-0.00092294,-0.00056380,-0.00110354,-0.00703108,0.00538506,0.0050
 3978,0.00022006,0.00064459,0.04196761,0.11782813,-0.10303979,0.0027321
 6,0.01775320,-0.00496180,0.00025910,0.00086414,0.00002031,-0.00003185,
 0.00000059,0.00000700,-0.00001480,0.00000198,-0.00000750,0.00007646,-0
 .00006663,0.00006152,-0.00001040,0.00000112,-0.00001059,-0.00001669,0.
 00001044,-0.00000856,0.00000332,0.00000402,0.00000685,0.00000063,-0.00
 000207,-0.00000200,-0.00000220,-0.00000503,0.00000073,-0.00176860,-0.0
 0022054,-0.00097155,-0.00021271,0.00009601,-0.00011527,-0.00000531,-0.
 00000609,-0.00000485,-0.00000775,0.00000361,-0.00000535,-0.00002857,0.
 00004950,-0.00007314,-0.00001402,-0.00000868,-0.00002015,0.00003506,-0
 .00003648,-0.00003270,0.00000123,0.00000048,0.,0.00000067,-0.00000078,
 0.00000090,-0.00000080,-0.00000052,-0.00000035,0.00000006,0.00000023,0
 .00000002,-0.00000007,0.00000009,0.00000020,0.00000034,-0.00000031,-0.
 00000142,-0.00000004,-0.00000028,-0.00000039,0.00000027,0.00000060,0.0
 0000022,0.00000027,-0.00000033,-0.00000018,-0.00000041,-0.00000024,-0.
 00000037,-0.00000003,0.00000002,0.00000174,0.00000054,-0.00000137,0.00
 000015,-0.00000023,0.00000022,-0.00000067,-0.00000007,0.00000046,0.000
 00022,0.00000016,0.00000019,0.00000017,-0.00000014,-0.00000015,-0.0000
 0052,0.00000011,0.00000026,0.00000023,-0.00000004,0.00000094,0.0000002
 8,0.00000010,0.00000012,0.00000029,0.00000034,0.00000048,0.00000021,-0
 .00000178,-0.00000083,-0.00000076,0.00000025,-0.00000033,-0.00000043,0
 .00000012,0.00000023,0.00000024,-0.00133784,-0.00166685,-0.00110846,-0
 .04909685,-0.12583023,0.10183261\\0.00000018,-0.00000009,-0.00000003,0
 .00000013,0.00000016,-0.00000008,0.00000021,-0.00000016,-0.00000014,-0
 .00000012,-0.00000008,-0.00000002,0.00000014,0.00000019,0.00000014,0.0
 0000016,-0.00000016,0.00000007,-0.00000077,-0.00000017,0.00000010,0.00
 000030,-0.00000062,0.00000009,-0.00000165,-0.00000063,-0.00000147,0.00
 000423,0.00000507,0.00000084,-0.00000065,0.00000113,0.00000132,-0.0000
 0010,-0.00000022,0.00000038,-0.00000007,0.00000011,-0.00000006,-0.0000
 0006,0.00000004,-0.00000013,-0.00000007,0.,0.00000015,-0.00000005,-0.0
 0000009,0.00000009,0.00000012,0.00000003,-0.00000008,0.00000006,-0.000
 00001,0.,-0.00000535,-0.00000762,-0.00000464,0.00000004,-0.00000290,0.
 00000692,0.00000035,0.00000011,-0.00000056,0.00000019,0.00000381,-0.00
 000091,0.00000008,0.00000147,-0.00000011,-0.00000298,-0.00000100,0.000
 00184,0.00000203,-0.00000196,-0.00000115,-0.00000006,0.00000016,-0.000
 00010,0.00000057,-0.00000032,0.00000111,0.00000103,0.00000040,-0.00000
 052,-0.00000033,-0.00000032,-0.00000046,-0.00000042,-0.00000048,-0.000
 00041,0.00000017,0.00000005,0.00000016,0.00000029,-0.00000011,0.000000
 49,-0.00000005,0.00000003,0.00000027,0.00000007,-0.00000016,0.00000017
 ,0.00000046,-0.00000005,-0.00000077,0.00000089,0.00000101,-0.00000005,
 0.00000003,0.00000006,0.00000032,0.00000115,0.00000096,0.00000014,0.00
 000118,0.00000152,0.00000049,-0.00000118,-0.00000057,0.00000063,-0.000
 00192,0.,-0.00000008,-0.00000011,0.00000009,0.00000006,-0.00000010,-0.
 00000015,0.00000003,0.,0.00000021,0.,-0.00000018,0.00000011,0.00000002
 ,-0.00000015,-0.00000009,-0.00000005,-0.00000002,-0.00000020,0.,-0.000
 00012,0.00000021,0.00000011,0.00000013,0.00000011,0.00000011,0.0000000
 9,0.00000009,0.00000010,0.00000009,-0.00000011,-0.00000006,0.00000011,
 -0.00000007,-0.00000012,-0.00000010,-0.00000019,-0.00000015,-0.0000000
 6,0.00000008,0.00000023,0.00000001,0.00000018,0.00000020,0.00000006,0.
 00000010,0.00000011,-0.00000002,-0.00000009,-0.00000023,0.00000006,-0.
 00000010,-0.00000011,0.,-0.00000017,-0.00000021,0.00000002,0.00000017,
 0.00000020,0.00000002,-0.00000017,-0.00000021,-0.00000006,0.00000001,-
 0.00000003,0.00000009,-0.00000001,0.00000002,0.00000005,0.,0.,0.000001
 49,-0.00000095,-0.00000269,0.00000045,0.00000237,-0.00000127\\\@
 The archive entry for this job was punched.


 WE STILL HAVE JUDGEMENT HERE,
 THAT WE TEACH BUT BLOODY INSTRUCTIONS,
 WHICH, BEING TAUGHT,
 RETURN TO PLAGUE THE INVENTOR.
           MACBETH ACT I, SCENE VII
 Job cpu time:       1 days  8 hours 22 minutes 45.9 seconds.
 Elapsed time:       0 days  1 hours 21 minutes  1.8 seconds.
 File lengths (MBytes):  RWF=  10152 Int=      0 D2E=      0 Chk=     80 Scr=      2
 Normal termination of Gaussian 16 at Fri Jun 13 15:25:05 2025.
