 Entering Gaussian System, Link 0=g16
 Input=molecule.gjf
 Output=molecule.log
 Initial command:
 /share/apps/softwares/gaussian/16/g16/l1.exe "/share/home/kae/gaussian/corrtectedOI/torsion/theta80/Gau-4937.inp" -scrdir="/share/home/kae/gaussian/corrtectedOI/torsion/theta80/"
 Entering Link 1 = /share/apps/softwares/gaussian/16/g16/l1.exe PID=      4939.
  
 Copyright (c) 1988-2019, Gaussian, Inc.  All Rights Reserved.
  
 This is part of the Gaussian(R) 16 program.  It is based on
 the Gaussian(R) 09 system (copyright 2009, Gaussian, Inc.),
 the Gaussian(R) 03 system (copyright 2003, Gaussian, Inc.),
 the Gaussian(R) 98 system (copyright 1998, Gaussian, Inc.),
 the Gaussian(R) 94 system (copyright 1995, Gaussian, Inc.),
 the Gaussian 92(TM) system (copyright 1992, Gaussian, Inc.),
 the Gaussian 90(TM) system (copyright 1990, Gaussian, Inc.),
 the Gaussian 88(TM) system (copyright 1988, Gaussian, Inc.),
 the Gaussian 86(TM) system (copyright 1986, Carnegie Mellon
 University), and the Gaussian 82(TM) system (copyright 1983,
 Carnegie Mellon University). Gaussian is a federally registered
 trademark of Gaussian, Inc.
  
 This software contains proprietary and confidential information,
 including trade secrets, belonging to Gaussian, Inc.
  
 This software is provided under written license and may be
 used, copied, transmitted, or stored only in accord with that
 written license.
  
 The following legend is applicable only to US Government
 contracts under FAR:
  
                    RESTRICTED RIGHTS LEGEND
  
 Use, reproduction and disclosure by the US Government is
 subject to restrictions as set forth in subparagraphs (a)
 and (c) of the Commercial Computer Software - Restricted
 Rights clause in FAR 52.227-19.
  
 Gaussian, Inc.
 340 Quinnipiac St., Bldg. 40, Wallingford CT 06492
  
  
 ---------------------------------------------------------------
 Warning -- This program may not be used in any manner that
 competes with the business of Gaussian, Inc. or will provide
 assistance to any competitor of Gaussian, Inc.  The licensee
 of this program is prohibited from giving any competitor of
 Gaussian, Inc. access to this program.  By using this program,
 the user acknowledges that Gaussian, Inc. is engaged in the
 business of creating and licensing software in the field of
 computational chemistry and represents and warrants to the
 licensee that it is not a competitor of Gaussian, Inc. and that
 it will not use this program in any manner prohibited above.
 ---------------------------------------------------------------
  

 Cite this work as:
 Gaussian 16, Revision C.01,
 M. J. Frisch, G. W. Trucks, H. B. Schlegel, G. E. Scuseria, 
 M. A. Robb, J. R. Cheeseman, G. Scalmani, V. Barone, 
 G. A. Petersson, H. Nakatsuji, X. Li, M. Caricato, A. V. Marenich, 
 J. Bloino, B. G. Janesko, R. Gomperts, B. Mennucci, H. P. Hratchian, 
 J. V. Ortiz, A. F. Izmaylov, J. L. Sonnenberg, D. Williams-Young, 
 F. Ding, F. Lipparini, F. Egidi, J. Goings, B. Peng, A. Petrone, 
 T. Henderson, D. Ranasinghe, V. G. Zakrzewski, J. Gao, N. Rega, 
 G. Zheng, W. Liang, M. Hada, M. Ehara, K. Toyota, R. Fukuda, 
 J. Hasegawa, M. Ishida, T. Nakajima, Y. Honda, O. Kitao, H. Nakai, 
 T. Vreven, K. Throssell, J. A. Montgomery, Jr., J. E. Peralta, 
 F. Ogliaro, M. J. Bearpark, J. J. Heyd, E. N. Brothers, K. N. Kudin, 
 V. N. Staroverov, T. A. Keith, R. Kobayashi, J. Normand, 
 K. Raghavachari, A. P. Rendell, J. C. Burant, S. S. Iyengar, 
 J. Tomasi, M. Cossi, J. M. Millam, M. Klene, C. Adamo, R. Cammi, 
 J. W. Ochterski, R. L. Martin, K. Morokuma, O. Farkas, 
 J. B. Foresman, and D. J. Fox, Gaussian, Inc., Wallingford CT, 2019.
 
 ******************************************
 Gaussian 16:  ES64L-G16RevC.01  3-Jul-2019
                15-Aug-2025 
 ******************************************
 %mem=56GB
 %nprocshared=24
 Will use up to   24 processors via shared memory.
 %chk=molecule.chk
 ---------------------------------------------------
 #p opt=modredundant freq Ub3lyp/6-31g(d,p) em=gd3bj
 ---------------------------------------------------
 1/18=120,19=15,26=3,38=1/1,3;
 2/9=110,12=2,17=6,18=5,40=1/2;
 3/5=1,6=6,7=101,11=2,25=1,30=1,71=1,74=-5,116=2,124=41/1,2,3;
 4//1;
 5/5=2,38=5/2;
 6/7=2,8=2,9=2,10=2,28=1/1;
 7//1,2,3,16;
 1/18=20,19=15,26=3/3(2);
 2/9=110/2;
 99//99;
 2/9=110/2;
 3/5=1,6=6,7=101,11=2,25=1,30=1,71=1,74=-5,116=2,124=41/1,2,3;
 4/5=5,16=3,69=1/1;
 5/5=2,38=5/2;
 7//1,2,3,16;
 1/18=20,19=15,26=3/3(-5);
 2/9=110/2;
 6/7=2,8=2,9=2,10=2,19=2,28=1/1;
 99/9=1/99;
 Leave Link    1 at Fri Aug 15 20:57:54 2025, MaxMem=  7516192768 cpu:               1.9 elap:               0.2
 (Enter /share/apps/softwares/gaussian/16/g16/l101.exe)
 --------
 molecule
 --------
 Symbolic Z-matrix:
 Charge =  0 Multiplicity = 2
 C                    -0.58017  -0.00001  -0.00003 
 C                    -1.30599   0.22066  -1.18261 
 C                    -2.69683   0.21973  -1.18236 
 C                    -3.4172   0.        -0.00006 
 C                    -2.69686  -0.21974   1.18225 
 C                    -1.30602  -0.22069   1.18254 
 C                     0.89624  -0.00002  -0.00001 
 C                     1.62663  -0.47663  -1.10417 
 C                     3.01199  -0.47507  -1.10827 
 C                     3.75439  -0.00002   0.00001 
 C                     3.01197   0.47503   1.10829 
 C                     1.62661   0.47658   1.10416 
 H                    -0.77279   0.41927  -2.10669 
 H                    -3.23922   0.39807  -2.10561 
 H                    -3.23927  -0.39808   2.10549 
 H                    -0.77285  -0.41929   2.10663 
 H                     1.09501  -0.89071  -1.95506 
 H                     1.09498   0.89065   1.95505 
 C                     5.20759  0.         0.00002 
 C                     5.94223   1.05685  -0.6916 
 C                     6.49161   0.84528  -1.97681 
 C                     6.13411   2.32665  -0.1008 
 C                     7.18875   1.85138  -2.6354 
 C                     6.836     3.32843  -0.76116 
 H                     5.74361   2.50778   0.89437 
 C                     7.36673   3.09949  -2.03311 
 H                     7.5885    1.66489  -3.62774 
 C                     5.94225  -1.05682   0.69162 
 C                     6.13417  -2.32661   0.10079 
 C                     6.49164  -0.84527   1.97684 
 C                     6.8361   -3.32838   0.76112 
 C                     7.18882  -1.85136   2.63539 
 C                     7.36685  -3.09945   2.03307 
 H                     6.97914  -4.29018   0.27759 
 H                     7.58857  -1.66488   3.62773 
 H                     7.91315   3.88345  -2.54803 
 H                     6.34487  -0.11458  -2.45926 
 H                     6.97902   4.29024  -0.27764 
 H                     7.9133   -3.8834    2.54797 
 H                     5.74364  -2.50775  -0.89436 
 H                     6.34485   0.11457   2.45933 
 H                     3.54308   0.87812   1.96306 
 H                     3.54311  -0.87819  -1.96302 
 C                    -5.60976  -1.20924   0.20041 
 C                    -5.60975   1.20924  -0.20059 
 C                    -4.9462   -2.46488   0.37672 
 C                    -7.05391  -1.20159   0.20681 
 C                    -7.0539    1.20159  -0.20701 
 C                    -4.94618   2.46488  -0.37688 
 C                    -5.65498  -3.62059   0.57096 
 H                    -3.86351  -2.48973   0.34865 
 C                    -7.75379  -2.42942   0.41638 
 C                    -7.75378   2.42943  -0.4166 
 H                    -3.86349   2.48973  -0.34878 
 C                    -5.65495   3.62059  -0.57114 
 C                    -7.07825  -3.60515   0.59774 
 H                    -5.1289   -4.56141   0.70078 
 H                    -8.83998  -2.40642   0.42493 
 C                    -7.07823   3.60516  -0.59794 
 H                    -8.83996   2.40644  -0.42517 
 H                    -5.12887   4.56141  -0.70094 
 H                    -7.62245  -4.53121   0.75526 
 H                    -7.62242   4.53122  -0.75548 
 C                    -4.90647   0.       -0.00008 
 C                    -7.73559   0.00001  -0.00011 
 H                    -8.8227    0.00001  -0.00012 
 
 The following ModRedundant input section has been read:
 D      10      19      20      21 F                                           
 D      10      19      28      30 F                                           
 D      11      10      19      20 F                                           
 
 ITRead=  0  0  0  0  0  0  0  0  0  0  0  0  0  0  0  0  0  0  0  0
 ITRead=  0  0  0  0  0  0  0  0  0  0  0  0  0  0  0  0  0  0  0  0
 ITRead=  0  0  0  0  0  0  0  0  0  0  0  0  0  0  0  0  0  0  0  0
 ITRead=  0  0  0  0  0  0
 MicOpt= -1 -1 -1 -1 -1 -1 -1 -1 -1 -1 -1 -1 -1 -1 -1 -1 -1 -1 -1 -1
 MicOpt= -1 -1 -1 -1 -1 -1 -1 -1 -1 -1 -1 -1 -1 -1 -1 -1 -1 -1 -1 -1
 MicOpt= -1 -1 -1 -1 -1 -1 -1 -1 -1 -1 -1 -1 -1 -1 -1 -1 -1 -1 -1 -1
 MicOpt= -1 -1 -1 -1 -1 -1
 NAtoms=     66 NQM=       66 NQMF=       0 NMMI=      0 NMMIF=      0
                NMic=       0 NMicF=      0.
                    Isotopes and Nuclear Properties:
 (Nuclear quadrupole moments (NQMom) in fm**2, nuclear magnetic moments (NMagM)
  in nuclear magnetons)

  Atom         1           2           3           4           5           6           7           8           9          10
 IAtWgt=          12          12          12          12          12          12          12          12          12          12
 AtmWgt=  12.0000000  12.0000000  12.0000000  12.0000000  12.0000000  12.0000000  12.0000000  12.0000000  12.0000000  12.0000000
 NucSpn=           0           0           0           0           0           0           0           0           0           0
 AtZEff=  -0.0000000  -0.0000000  -0.0000000  -0.0000000  -0.0000000  -0.0000000  -0.0000000  -0.0000000  -0.0000000  -0.0000000
 NQMom=    0.0000000   0.0000000   0.0000000   0.0000000   0.0000000   0.0000000   0.0000000   0.0000000   0.0000000   0.0000000
 NMagM=    0.0000000   0.0000000   0.0000000   0.0000000   0.0000000   0.0000000   0.0000000   0.0000000   0.0000000   0.0000000
 AtZNuc=   6.0000000   6.0000000   6.0000000   6.0000000   6.0000000   6.0000000   6.0000000   6.0000000   6.0000000   6.0000000

  Atom        11          12          13          14          15          16          17          18          19          20
 IAtWgt=          12          12           1           1           1           1           1           1          12          12
 AtmWgt=  12.0000000  12.0000000   1.0078250   1.0078250   1.0078250   1.0078250   1.0078250   1.0078250  12.0000000  12.0000000
 NucSpn=           0           0           1           1           1           1           1           1           0           0
 AtZEff=  -0.0000000  -0.0000000  -0.0000000  -0.0000000  -0.0000000  -0.0000000  -0.0000000  -0.0000000  -0.0000000  -0.0000000
 NQMom=    0.0000000   0.0000000   0.0000000   0.0000000   0.0000000   0.0000000   0.0000000   0.0000000   0.0000000   0.0000000
 NMagM=    0.0000000   0.0000000   2.7928460   2.7928460   2.7928460   2.7928460   2.7928460   2.7928460   0.0000000   0.0000000
 AtZNuc=   6.0000000   6.0000000   1.0000000   1.0000000   1.0000000   1.0000000   1.0000000   1.0000000   6.0000000   6.0000000

  Atom        21          22          23          24          25          26          27          28          29          30
 IAtWgt=          12          12          12          12           1          12           1          12          12          12
 AtmWgt=  12.0000000  12.0000000  12.0000000  12.0000000   1.0078250  12.0000000   1.0078250  12.0000000  12.0000000  12.0000000
 NucSpn=           0           0           0           0           1           0           1           0           0           0
 AtZEff=  -0.0000000  -0.0000000  -0.0000000  -0.0000000  -0.0000000  -0.0000000  -0.0000000  -0.0000000  -0.0000000  -0.0000000
 NQMom=    0.0000000   0.0000000   0.0000000   0.0000000   0.0000000   0.0000000   0.0000000   0.0000000   0.0000000   0.0000000
 NMagM=    0.0000000   0.0000000   0.0000000   0.0000000   2.7928460   0.0000000   2.7928460   0.0000000   0.0000000   0.0000000
 AtZNuc=   6.0000000   6.0000000   6.0000000   6.0000000   1.0000000   6.0000000   1.0000000   6.0000000   6.0000000   6.0000000

  Atom        31          32          33          34          35          36          37          38          39          40
 IAtWgt=          12          12          12           1           1           1           1           1           1           1
 AtmWgt=  12.0000000  12.0000000  12.0000000   1.0078250   1.0078250   1.0078250   1.0078250   1.0078250   1.0078250   1.0078250
 NucSpn=           0           0           0           1           1           1           1           1           1           1
 AtZEff=  -0.0000000  -0.0000000  -0.0000000  -0.0000000  -0.0000000  -0.0000000  -0.0000000  -0.0000000  -0.0000000  -0.0000000
 NQMom=    0.0000000   0.0000000   0.0000000   0.0000000   0.0000000   0.0000000   0.0000000   0.0000000   0.0000000   0.0000000
 NMagM=    0.0000000   0.0000000   0.0000000   2.7928460   2.7928460   2.7928460   2.7928460   2.7928460   2.7928460   2.7928460
 AtZNuc=   6.0000000   6.0000000   6.0000000   1.0000000   1.0000000   1.0000000   1.0000000   1.0000000   1.0000000   1.0000000

  Atom        41          42          43          44          45          46          47          48          49          50
 IAtWgt=           1           1           1          12          12          12          12          12          12          12
 AtmWgt=   1.0078250   1.0078250   1.0078250  12.0000000  12.0000000  12.0000000  12.0000000  12.0000000  12.0000000  12.0000000
 NucSpn=           1           1           1           0           0           0           0           0           0           0
 AtZEff=  -0.0000000  -0.0000000  -0.0000000  -0.0000000  -0.0000000  -0.0000000  -0.0000000  -0.0000000  -0.0000000  -0.0000000
 NQMom=    0.0000000   0.0000000   0.0000000   0.0000000   0.0000000   0.0000000   0.0000000   0.0000000   0.0000000   0.0000000
 NMagM=    2.7928460   2.7928460   2.7928460   0.0000000   0.0000000   0.0000000   0.0000000   0.0000000   0.0000000   0.0000000
 AtZNuc=   1.0000000   1.0000000   1.0000000   6.0000000   6.0000000   6.0000000   6.0000000   6.0000000   6.0000000   6.0000000

  Atom        51          52          53          54          55          56          57          58          59          60
 IAtWgt=           1          12          12           1          12          12           1           1          12           1
 AtmWgt=   1.0078250  12.0000000  12.0000000   1.0078250  12.0000000  12.0000000   1.0078250   1.0078250  12.0000000   1.0078250
 NucSpn=           1           0           0           1           0           0           1           1           0           1
 AtZEff=  -0.0000000  -0.0000000  -0.0000000  -0.0000000  -0.0000000  -0.0000000  -0.0000000  -0.0000000  -0.0000000  -0.0000000
 NQMom=    0.0000000   0.0000000   0.0000000   0.0000000   0.0000000   0.0000000   0.0000000   0.0000000   0.0000000   0.0000000
 NMagM=    2.7928460   0.0000000   0.0000000   2.7928460   0.0000000   0.0000000   2.7928460   2.7928460   0.0000000   2.7928460
 AtZNuc=   1.0000000   6.0000000   6.0000000   1.0000000   6.0000000   6.0000000   1.0000000   1.0000000   6.0000000   1.0000000

  Atom        61          62          63          64          65          66
 IAtWgt=           1           1           1          12          12           1
 AtmWgt=   1.0078250   1.0078250   1.0078250  12.0000000  12.0000000   1.0078250
 NucSpn=           1           1           1           0           0           1
 AtZEff=  -0.0000000  -0.0000000  -0.0000000  -0.0000000  -0.0000000  -0.0000000
 NQMom=    0.0000000   0.0000000   0.0000000   0.0000000   0.0000000   0.0000000
 NMagM=    2.7928460   2.7928460   2.7928460   0.0000000   0.0000000   2.7928460
 AtZNuc=   1.0000000   1.0000000   1.0000000   6.0000000   6.0000000   1.0000000
 Leave Link  101 at Fri Aug 15 20:57:56 2025, MaxMem=  7516192768 cpu:               9.9 elap:               0.5
 (Enter /share/apps/softwares/gaussian/16/g16/l103.exe)

 GradGradGradGradGradGradGradGradGradGradGradGradGradGradGradGradGradGrad
 Berny optimization.
 Initialization pass.
                           ----------------------------
                           !    Initial Parameters    !
                           ! (Angstroms and Degrees)  !
 --------------------------                            --------------------------
 ! Name  Definition              Value          Derivative Info.                !
 --------------------------------------------------------------------------------
 ! R1    R(1,2)                  1.405          estimate D2E/DX2                !
 ! R2    R(1,6)                  1.405          estimate D2E/DX2                !
 ! R3    R(1,7)                  1.4764         estimate D2E/DX2                !
 ! R4    R(2,3)                  1.3908         estimate D2E/DX2                !
 ! R5    R(2,13)                 1.0852         estimate D2E/DX2                !
 ! R6    R(3,4)                  1.4018         estimate D2E/DX2                !
 ! R7    R(3,14)                 1.0855         estimate D2E/DX2                !
 ! R8    R(4,5)                  1.4018         estimate D2E/DX2                !
 ! R9    R(4,64)                 1.4893         estimate D2E/DX2                !
 ! R10   R(5,6)                  1.3908         estimate D2E/DX2                !
 ! R11   R(5,15)                 1.0855         estimate D2E/DX2                !
 ! R12   R(6,16)                 1.0852         estimate D2E/DX2                !
 ! R13   R(7,8)                  1.407          estimate D2E/DX2                !
 ! R14   R(7,12)                 1.407          estimate D2E/DX2                !
 ! R15   R(8,9)                  1.3854         estimate D2E/DX2                !
 ! R16   R(8,17)                 1.0854         estimate D2E/DX2                !
 ! R17   R(9,10)                 1.416          estimate D2E/DX2                !
 ! R18   R(9,43)                 1.0841         estimate D2E/DX2                !
 ! R19   R(10,11)                1.416          estimate D2E/DX2                !
 ! R20   R(10,19)                1.4532         estimate D2E/DX2                !
 ! R21   R(11,12)                1.3854         estimate D2E/DX2                !
 ! R22   R(11,42)                1.0841         estimate D2E/DX2                !
 ! R23   R(12,18)                1.0854         estimate D2E/DX2                !
 ! R24   R(19,20)                1.4612         estimate D2E/DX2                !
 ! R25   R(19,28)                1.4611         estimate D2E/DX2                !
 ! R26   R(20,21)                1.4136         estimate D2E/DX2                !
 ! R27   R(20,22)                1.4136         estimate D2E/DX2                !
 ! R28   R(21,23)                1.39           estimate D2E/DX2                !
 ! R29   R(21,37)                1.0843         estimate D2E/DX2                !
 ! R30   R(22,24)                1.3901         estimate D2E/DX2                !
 ! R31   R(22,25)                1.0843         estimate D2E/DX2                !
 ! R32   R(23,26)                1.3972         estimate D2E/DX2                !
 ! R33   R(23,27)                1.086          estimate D2E/DX2                !
 ! R34   R(24,26)                1.3971         estimate D2E/DX2                !
 ! R35   R(24,38)                1.086          estimate D2E/DX2                !
 ! R36   R(26,36)                1.0855         estimate D2E/DX2                !
 ! R37   R(28,29)                1.4136         estimate D2E/DX2                !
 ! R38   R(28,30)                1.4136         estimate D2E/DX2                !
 ! R39   R(29,31)                1.3901         estimate D2E/DX2                !
 ! R40   R(29,40)                1.0843         estimate D2E/DX2                !
 ! R41   R(30,32)                1.39           estimate D2E/DX2                !
 ! R42   R(30,41)                1.0843         estimate D2E/DX2                !
 ! R43   R(31,33)                1.3971         estimate D2E/DX2                !
 ! R44   R(31,34)                1.086          estimate D2E/DX2                !
 ! R45   R(32,33)                1.3972         estimate D2E/DX2                !
 ! R46   R(32,35)                1.086          estimate D2E/DX2                !
 ! R47   R(33,39)                1.0855         estimate D2E/DX2                !
 ! R48   R(44,46)                1.4311         estimate D2E/DX2                !
 ! R49   R(44,47)                1.4442         estimate D2E/DX2                !
 ! R50   R(44,64)                1.4132         estimate D2E/DX2                !
 ! R51   R(45,48)                1.4442         estimate D2E/DX2                !
 ! R52   R(45,49)                1.4311         estimate D2E/DX2                !
 ! R53   R(45,64)                1.4132         estimate D2E/DX2                !
 ! R54   R(46,50)                1.3696         estimate D2E/DX2                !
 ! R55   R(46,51)                1.0833         estimate D2E/DX2                !
 ! R56   R(47,52)                1.4288         estimate D2E/DX2                !
 ! R57   R(47,65)                1.3969         estimate D2E/DX2                !
 ! R58   R(48,53)                1.4288         estimate D2E/DX2                !
 ! R59   R(48,65)                1.3969         estimate D2E/DX2                !
 ! R60   R(49,54)                1.0833         estimate D2E/DX2                !
 ! R61   R(49,55)                1.3696         estimate D2E/DX2                !
 ! R62   R(50,56)                1.4236         estimate D2E/DX2                !
 ! R63   R(50,57)                1.0857         estimate D2E/DX2                !
 ! R64   R(52,56)                1.3681         estimate D2E/DX2                !
 ! R65   R(52,58)                1.0865         estimate D2E/DX2                !
 ! R66   R(53,59)                1.3681         estimate D2E/DX2                !
 ! R67   R(53,60)                1.0865         estimate D2E/DX2                !
 ! R68   R(55,59)                1.4236         estimate D2E/DX2                !
 ! R69   R(55,61)                1.0857         estimate D2E/DX2                !
 ! R70   R(56,62)                1.0856         estimate D2E/DX2                !
 ! R71   R(59,63)                1.0856         estimate D2E/DX2                !
 ! R72   R(65,66)                1.0871         estimate D2E/DX2                !
 ! A1    A(2,1,6)              117.7898         estimate D2E/DX2                !
 ! A2    A(2,1,7)              121.1051         estimate D2E/DX2                !
 ! A3    A(6,1,7)              121.1051         estimate D2E/DX2                !
 ! A4    A(1,2,3)              121.0871         estimate D2E/DX2                !
 ! A5    A(1,2,13)             119.449          estimate D2E/DX2                !
 ! A6    A(3,2,13)             119.4467         estimate D2E/DX2                !
 ! A7    A(2,3,4)              120.9407         estimate D2E/DX2                !
 ! A8    A(2,3,14)             119.9598         estimate D2E/DX2                !
 ! A9    A(4,3,14)             119.098          estimate D2E/DX2                !
 ! A10   A(3,4,5)              118.1546         estimate D2E/DX2                !
 ! A11   A(3,4,64)             120.9228         estimate D2E/DX2                !
 ! A12   A(5,4,64)             120.9227         estimate D2E/DX2                !
 ! A13   A(4,5,6)              120.9406         estimate D2E/DX2                !
 ! A14   A(4,5,15)             119.0981         estimate D2E/DX2                !
 ! A15   A(6,5,15)             119.9598         estimate D2E/DX2                !
 ! A16   A(1,6,5)              121.0871         estimate D2E/DX2                !
 ! A17   A(1,6,16)             119.449          estimate D2E/DX2                !
 ! A18   A(5,6,16)             119.4466         estimate D2E/DX2                !
 ! A19   A(1,7,8)              121.271          estimate D2E/DX2                !
 ! A20   A(1,7,12)             121.2711         estimate D2E/DX2                !
 ! A21   A(8,7,12)             117.4579         estimate D2E/DX2                !
 ! A22   A(7,8,9)              121.4019         estimate D2E/DX2                !
 ! A23   A(7,8,17)             119.3511         estimate D2E/DX2                !
 ! A24   A(9,8,17)             119.2021         estimate D2E/DX2                !
 ! A25   A(8,9,10)             121.4892         estimate D2E/DX2                !
 ! A26   A(8,9,43)             119.4623         estimate D2E/DX2                !
 ! A27   A(10,9,43)            119.0127         estimate D2E/DX2                !
 ! A28   A(9,10,11)            116.7589         estimate D2E/DX2                !
 ! A29   A(9,10,19)            121.6205         estimate D2E/DX2                !
 ! A30   A(11,10,19)           121.6205         estimate D2E/DX2                !
 ! A31   A(10,11,12)           121.4893         estimate D2E/DX2                !
 ! A32   A(10,11,42)           119.0125         estimate D2E/DX2                !
 ! A33   A(12,11,42)           119.4625         estimate D2E/DX2                !
 ! A34   A(7,12,11)            121.4018         estimate D2E/DX2                !
 ! A35   A(7,12,18)            119.3512         estimate D2E/DX2                !
 ! A36   A(11,12,18)           119.2022         estimate D2E/DX2                !
 ! A37   A(10,19,20)           120.1844         estimate D2E/DX2                !
 ! A38   A(10,19,28)           120.1856         estimate D2E/DX2                !
 ! A39   A(20,19,28)           119.6299         estimate D2E/DX2                !
 ! A40   A(19,20,21)           121.1637         estimate D2E/DX2                !
 ! A41   A(19,20,22)           121.3419         estimate D2E/DX2                !
 ! A42   A(21,20,22)           117.4942         estimate D2E/DX2                !
 ! A43   A(20,21,23)           121.1558         estimate D2E/DX2                !
 ! A44   A(20,21,37)           118.9753         estimate D2E/DX2                !
 ! A45   A(23,21,37)           119.8568         estimate D2E/DX2                !
 ! A46   A(20,22,24)           121.155          estimate D2E/DX2                !
 ! A47   A(20,22,25)           118.9973         estimate D2E/DX2                !
 ! A48   A(24,22,25)           119.8329         estimate D2E/DX2                !
 ! A49   A(21,23,26)           120.4133         estimate D2E/DX2                !
 ! A50   A(21,23,27)           119.5574         estimate D2E/DX2                !
 ! A51   A(26,23,27)           120.0272         estimate D2E/DX2                !
 ! A52   A(22,24,26)           120.412          estimate D2E/DX2                !
 ! A53   A(22,24,38)           119.5552         estimate D2E/DX2                !
 ! A54   A(26,24,38)           120.03           estimate D2E/DX2                !
 ! A55   A(23,26,24)           119.369          estimate D2E/DX2                !
 ! A56   A(23,26,36)           120.3167         estimate D2E/DX2                !
 ! A57   A(24,26,36)           120.3143         estimate D2E/DX2                !
 ! A58   A(19,28,29)           121.3412         estimate D2E/DX2                !
 ! A59   A(19,28,30)           121.1647         estimate D2E/DX2                !
 ! A60   A(29,28,30)           117.4939         estimate D2E/DX2                !
 ! A61   A(28,29,31)           121.1551         estimate D2E/DX2                !
 ! A62   A(28,29,40)           118.9969         estimate D2E/DX2                !
 ! A63   A(31,29,40)           119.8332         estimate D2E/DX2                !
 ! A64   A(28,30,32)           121.1558         estimate D2E/DX2                !
 ! A65   A(28,30,41)           118.9754         estimate D2E/DX2                !
 ! A66   A(32,30,41)           119.8566         estimate D2E/DX2                !
 ! A67   A(29,31,33)           120.4121         estimate D2E/DX2                !
 ! A68   A(29,31,34)           119.5551         estimate D2E/DX2                !
 ! A69   A(33,31,34)           120.0299         estimate D2E/DX2                !
 ! A70   A(30,32,33)           120.4135         estimate D2E/DX2                !
 ! A71   A(30,32,35)           119.5572         estimate D2E/DX2                !
 ! A72   A(33,32,35)           120.0271         estimate D2E/DX2                !
 ! A73   A(31,33,32)           119.3689         estimate D2E/DX2                !
 ! A74   A(31,33,39)           120.3144         estimate D2E/DX2                !
 ! A75   A(32,33,39)           120.3167         estimate D2E/DX2                !
 ! A76   A(46,44,47)           117.8892         estimate D2E/DX2                !
 ! A77   A(46,44,64)           122.5141         estimate D2E/DX2                !
 ! A78   A(47,44,64)           119.5871         estimate D2E/DX2                !
 ! A79   A(48,45,49)           117.8892         estimate D2E/DX2                !
 ! A80   A(48,45,64)           119.5872         estimate D2E/DX2                !
 ! A81   A(49,45,64)           122.514          estimate D2E/DX2                !
 ! A82   A(44,46,50)           121.1915         estimate D2E/DX2                !
 ! A83   A(44,46,51)           118.7073         estimate D2E/DX2                !
 ! A84   A(50,46,51)           120.1004         estimate D2E/DX2                !
 ! A85   A(44,47,52)           119.0741         estimate D2E/DX2                !
 ! A86   A(44,47,65)           119.4642         estimate D2E/DX2                !
 ! A87   A(52,47,65)           121.4603         estimate D2E/DX2                !
 ! A88   A(45,48,53)           119.0741         estimate D2E/DX2                !
 ! A89   A(45,48,65)           119.4642         estimate D2E/DX2                !
 ! A90   A(53,48,65)           121.4603         estimate D2E/DX2                !
 ! A91   A(45,49,54)           118.7072         estimate D2E/DX2                !
 ! A92   A(45,49,55)           121.1915         estimate D2E/DX2                !
 ! A93   A(54,49,55)           120.1004         estimate D2E/DX2                !
 ! A94   A(46,50,56)           120.7242         estimate D2E/DX2                !
 ! A95   A(46,50,57)           119.8304         estimate D2E/DX2                !
 ! A96   A(56,50,57)           119.4445         estimate D2E/DX2                !
 ! A97   A(47,52,56)           121.0721         estimate D2E/DX2                !
 ! A98   A(47,52,58)           118.2094         estimate D2E/DX2                !
 ! A99   A(56,52,58)           120.7182         estimate D2E/DX2                !
 ! A100  A(48,53,59)           121.0721         estimate D2E/DX2                !
 ! A101  A(48,53,60)           118.2093         estimate D2E/DX2                !
 ! A102  A(59,53,60)           120.7183         estimate D2E/DX2                !
 ! A103  A(49,55,59)           120.7243         estimate D2E/DX2                !
 ! A104  A(49,55,61)           119.8304         estimate D2E/DX2                !
 ! A105  A(59,55,61)           119.4445         estimate D2E/DX2                !
 ! A106  A(50,56,52)           120.0335         estimate D2E/DX2                !
 ! A107  A(50,56,62)           119.6462         estimate D2E/DX2                !
 ! A108  A(52,56,62)           120.3187         estimate D2E/DX2                !
 ! A109  A(53,59,55)           120.0335         estimate D2E/DX2                !
 ! A110  A(53,59,63)           120.3187         estimate D2E/DX2                !
 ! A111  A(55,59,63)           119.6462         estimate D2E/DX2                !
 ! A112  A(4,64,44)            119.8452         estimate D2E/DX2                !
 ! A113  A(4,64,45)            119.8453         estimate D2E/DX2                !
 ! A114  A(44,64,45)           120.3094         estimate D2E/DX2                !
 ! A115  A(47,65,48)           121.5823         estimate D2E/DX2                !
 ! A116  A(47,65,66)           119.2088         estimate D2E/DX2                !
 ! A117  A(48,65,66)           119.2089         estimate D2E/DX2                !
 ! D1    D(6,1,2,3)             -0.0421         estimate D2E/DX2                !
 ! D2    D(6,1,2,13)           178.4402         estimate D2E/DX2                !
 ! D3    D(7,1,2,3)            179.9579         estimate D2E/DX2                !
 ! D4    D(7,1,2,13)            -1.5599         estimate D2E/DX2                !
 ! D5    D(2,1,6,5)             -0.0421         estimate D2E/DX2                !
 ! D6    D(2,1,6,16)           178.4402         estimate D2E/DX2                !
 ! D7    D(7,1,6,5)            179.9579         estimate D2E/DX2                !
 ! D8    D(7,1,6,16)            -1.5598         estimate D2E/DX2                !
 ! D9    D(2,1,7,8)            -33.9172         estimate D2E/DX2                !
 ! D10   D(2,1,7,12)           146.083          estimate D2E/DX2                !
 ! D11   D(6,1,7,8)            146.0827         estimate D2E/DX2                !
 ! D12   D(6,1,7,12)           -33.9171         estimate D2E/DX2                !
 ! D13   D(1,2,3,4)              0.0851         estimate D2E/DX2                !
 ! D14   D(1,2,3,14)           179.6382         estimate D2E/DX2                !
 ! D15   D(13,2,3,4)          -178.3972         estimate D2E/DX2                !
 ! D16   D(13,2,3,14)            1.156          estimate D2E/DX2                !
 ! D17   D(2,3,4,5)             -0.0421         estimate D2E/DX2                !
 ! D18   D(2,3,4,64)           179.958          estimate D2E/DX2                !
 ! D19   D(14,3,4,5)          -179.5991         estimate D2E/DX2                !
 ! D20   D(14,3,4,64)            0.4011         estimate D2E/DX2                !
 ! D21   D(3,4,5,6)             -0.042          estimate D2E/DX2                !
 ! D22   D(3,4,5,15)          -179.599          estimate D2E/DX2                !
 ! D23   D(64,4,5,6)           179.9579         estimate D2E/DX2                !
 ! D24   D(64,4,5,15)            0.4009         estimate D2E/DX2                !
 ! D25   D(3,4,64,44)          109.9427         estimate D2E/DX2                !
 ! D26   D(3,4,64,45)          -70.0572         estimate D2E/DX2                !
 ! D27   D(5,4,64,44)          -70.0571         estimate D2E/DX2                !
 ! D28   D(5,4,64,45)          109.9429         estimate D2E/DX2                !
 ! D29   D(4,5,6,1)              0.085          estimate D2E/DX2                !
 ! D30   D(4,5,6,16)          -178.3973         estimate D2E/DX2                !
 ! D31   D(15,5,6,1)           179.6382         estimate D2E/DX2                !
 ! D32   D(15,5,6,16)            1.1559         estimate D2E/DX2                !
 ! D33   D(1,7,8,9)            179.8515         estimate D2E/DX2                !
 ! D34   D(1,7,8,17)            -2.6033         estimate D2E/DX2                !
 ! D35   D(12,7,8,9)            -0.1487         estimate D2E/DX2                !
 ! D36   D(12,7,8,17)          177.3965         estimate D2E/DX2                !
 ! D37   D(1,7,12,11)          179.8522         estimate D2E/DX2                !
 ! D38   D(1,7,12,18)           -2.6027         estimate D2E/DX2                !
 ! D39   D(8,7,12,11)           -0.1477         estimate D2E/DX2                !
 ! D40   D(8,7,12,18)          177.3975         estimate D2E/DX2                !
 ! D41   D(7,8,9,10)             0.2997         estimate D2E/DX2                !
 ! D42   D(7,8,9,43)           178.101          estimate D2E/DX2                !
 ! D43   D(17,8,9,10)         -177.2491         estimate D2E/DX2                !
 ! D44   D(17,8,9,43)            0.5522         estimate D2E/DX2                !
 ! D45   D(8,9,10,11)           -0.1472         estimate D2E/DX2                !
 ! D46   D(8,9,10,19)          179.8526         estimate D2E/DX2                !
 ! D47   D(43,9,10,11)        -177.9582         estimate D2E/DX2                !
 ! D48   D(43,9,10,19)           2.0416         estimate D2E/DX2                !
 ! D49   D(9,10,11,12)          -0.1487         estimate D2E/DX2                !
 ! D50   D(9,10,11,42)        -177.9606         estimate D2E/DX2                !
 ! D51   D(19,10,11,12)        179.8516         estimate D2E/DX2                !
 ! D52   D(19,10,11,42)          2.0396         estimate D2E/DX2                !
 ! D53   D(9,10,19,20)          80.0002         estimate D2E/DX2                !
 ! D54   D(9,10,19,28)         -99.9992         estimate D2E/DX2                !
 ! D55   D(11,10,19,20)       -100.0            Frozen                          !
 ! D56   D(11,10,19,28)         80.0005         estimate D2E/DX2                !
 ! D57   D(10,11,12,7)           0.2999         estimate D2E/DX2                !
 ! D58   D(10,11,12,18)       -177.2488         estimate D2E/DX2                !
 ! D59   D(42,11,12,7)         178.1022         estimate D2E/DX2                !
 ! D60   D(42,11,12,18)          0.5535         estimate D2E/DX2                !
 ! D61   D(10,19,20,21)       -100.0            Frozen                          !
 ! D62   D(10,19,20,22)         80.1912         estimate D2E/DX2                !
 ! D63   D(28,19,20,21)         79.9995         estimate D2E/DX2                !
 ! D64   D(28,19,20,22)        -99.8093         estimate D2E/DX2                !
 ! D65   D(10,19,28,29)         80.1913         estimate D2E/DX2                !
 ! D66   D(10,19,28,30)       -100.0            Frozen                          !
 ! D67   D(20,19,28,29)        -99.8082         estimate D2E/DX2                !
 ! D68   D(20,19,28,30)         80.0005         estimate D2E/DX2                !
 ! D69   D(19,20,21,23)        179.9049         estimate D2E/DX2                !
 ! D70   D(19,20,21,37)          1.1737         estimate D2E/DX2                !
 ! D71   D(22,20,21,23)         -0.2792         estimate D2E/DX2                !
 ! D72   D(22,20,21,37)       -179.0104         estimate D2E/DX2                !
 ! D73   D(19,20,22,24)        179.8684         estimate D2E/DX2                !
 ! D74   D(19,20,22,25)          1.271          estimate D2E/DX2                !
 ! D75   D(21,20,22,24)          0.0529         estimate D2E/DX2                !
 ! D76   D(21,20,22,25)       -178.5445         estimate D2E/DX2                !
 ! D77   D(20,21,23,26)          0.2828         estimate D2E/DX2                !
 ! D78   D(20,21,23,27)       -179.1828         estimate D2E/DX2                !
 ! D79   D(37,21,23,26)        179.003          estimate D2E/DX2                !
 ! D80   D(37,21,23,27)         -0.4626         estimate D2E/DX2                !
 ! D81   D(20,22,24,26)          0.1713         estimate D2E/DX2                !
 ! D82   D(20,22,24,38)       -179.2118         estimate D2E/DX2                !
 ! D83   D(25,22,24,26)        178.7572         estimate D2E/DX2                !
 ! D84   D(25,22,24,38)         -0.6259         estimate D2E/DX2                !
 ! D85   D(21,23,26,24)         -0.0523         estimate D2E/DX2                !
 ! D86   D(21,23,26,36)        179.8772         estimate D2E/DX2                !
 ! D87   D(27,23,26,24)        179.4108         estimate D2E/DX2                !
 ! D88   D(27,23,26,36)         -0.6598         estimate D2E/DX2                !
 ! D89   D(22,24,26,23)         -0.1727         estimate D2E/DX2                !
 ! D90   D(22,24,26,36)        179.8978         estimate D2E/DX2                !
 ! D91   D(38,24,26,23)        179.2075         estimate D2E/DX2                !
 ! D92   D(38,24,26,36)         -0.722          estimate D2E/DX2                !
 ! D93   D(19,28,29,31)        179.8678         estimate D2E/DX2                !
 ! D94   D(19,28,29,40)          1.2689         estimate D2E/DX2                !
 ! D95   D(30,28,29,31)          0.0523         estimate D2E/DX2                !
 ! D96   D(30,28,29,40)       -178.5466         estimate D2E/DX2                !
 ! D97   D(19,28,30,32)        179.9061         estimate D2E/DX2                !
 ! D98   D(19,28,30,41)          1.1749         estimate D2E/DX2                !
 ! D99   D(29,28,30,32)         -0.2781         estimate D2E/DX2                !
 ! D100  D(29,28,30,41)       -179.0093         estimate D2E/DX2                !
 ! D101  D(28,29,31,33)          0.1709         estimate D2E/DX2                !
 ! D102  D(28,29,31,34)       -179.212          estimate D2E/DX2                !
 ! D103  D(40,29,31,33)        178.7583         estimate D2E/DX2                !
 ! D104  D(40,29,31,34)         -0.6247         estimate D2E/DX2                !
 ! D105  D(28,30,32,33)          0.2822         estimate D2E/DX2                !
 ! D106  D(28,30,32,35)       -179.1832         estimate D2E/DX2                !
 ! D107  D(41,30,32,33)        179.0023         estimate D2E/DX2                !
 ! D108  D(41,30,32,35)         -0.4631         estimate D2E/DX2                !
 ! D109  D(29,31,33,32)         -0.1718         estimate D2E/DX2                !
 ! D110  D(29,31,33,39)        179.8983         estimate D2E/DX2                !
 ! D111  D(34,31,33,32)        179.2082         estimate D2E/DX2                !
 ! D112  D(34,31,33,39)         -0.7218         estimate D2E/DX2                !
 ! D113  D(30,32,33,31)         -0.0527         estimate D2E/DX2                !
 ! D114  D(30,32,33,39)        179.8773         estimate D2E/DX2                !
 ! D115  D(35,32,33,31)        179.4102         estimate D2E/DX2                !
 ! D116  D(35,32,33,39)         -0.6599         estimate D2E/DX2                !
 ! D117  D(47,44,46,50)         -1.216          estimate D2E/DX2                !
 ! D118  D(47,44,46,51)        178.4469         estimate D2E/DX2                !
 ! D119  D(64,44,46,50)        179.9138         estimate D2E/DX2                !
 ! D120  D(64,44,46,51)         -0.4233         estimate D2E/DX2                !
 ! D121  D(46,44,47,52)          1.3704         estimate D2E/DX2                !
 ! D122  D(46,44,47,65)       -178.2072         estimate D2E/DX2                !
 ! D123  D(64,44,47,52)       -179.7252         estimate D2E/DX2                !
 ! D124  D(64,44,47,65)          0.6973         estimate D2E/DX2                !
 ! D125  D(46,44,64,4)          -1.4939         estimate D2E/DX2                !
 ! D126  D(46,44,64,45)        178.5061         estimate D2E/DX2                !
 ! D127  D(47,44,64,4)         179.6544         estimate D2E/DX2                !
 ! D128  D(47,44,64,45)         -0.3456         estimate D2E/DX2                !
 ! D129  D(49,45,48,53)          1.3704         estimate D2E/DX2                !
 ! D130  D(49,45,48,65)       -178.2072         estimate D2E/DX2                !
 ! D131  D(64,45,48,53)       -179.7252         estimate D2E/DX2                !
 ! D132  D(64,45,48,65)          0.6972         estimate D2E/DX2                !
 ! D133  D(48,45,49,54)        178.4469         estimate D2E/DX2                !
 ! D134  D(48,45,49,55)         -1.216          estimate D2E/DX2                !
 ! D135  D(64,45,49,54)         -0.4232         estimate D2E/DX2                !
 ! D136  D(64,45,49,55)        179.9138         estimate D2E/DX2                !
 ! D137  D(48,45,64,4)         179.6544         estimate D2E/DX2                !
 ! D138  D(48,45,64,44)         -0.3455         estimate D2E/DX2                !
 ! D139  D(49,45,64,4)          -1.4939         estimate D2E/DX2                !
 ! D140  D(49,45,64,44)        178.5061         estimate D2E/DX2                !
 ! D141  D(44,46,50,56)          0.2468         estimate D2E/DX2                !
 ! D142  D(44,46,50,57)        179.9045         estimate D2E/DX2                !
 ! D143  D(51,46,50,56)       -179.4115         estimate D2E/DX2                !
 ! D144  D(51,46,50,57)          0.2462         estimate D2E/DX2                !
 ! D145  D(44,47,52,56)         -0.5864         estimate D2E/DX2                !
 ! D146  D(44,47,52,58)        179.6083         estimate D2E/DX2                !
 ! D147  D(65,47,52,56)        178.9824         estimate D2E/DX2                !
 ! D148  D(65,47,52,58)         -0.8229         estimate D2E/DX2                !
 ! D149  D(44,47,65,48)         -0.347          estimate D2E/DX2                !
 ! D150  D(44,47,65,66)        179.653          estimate D2E/DX2                !
 ! D151  D(52,47,65,48)       -179.9141         estimate D2E/DX2                !
 ! D152  D(52,47,65,66)          0.0859         estimate D2E/DX2                !
 ! D153  D(45,48,53,59)         -0.5864         estimate D2E/DX2                !
 ! D154  D(45,48,53,60)        179.6084         estimate D2E/DX2                !
 ! D155  D(65,48,53,59)        178.9824         estimate D2E/DX2                !
 ! D156  D(65,48,53,60)         -0.8228         estimate D2E/DX2                !
 ! D157  D(45,48,65,47)         -0.347          estimate D2E/DX2                !
 ! D158  D(45,48,65,66)        179.653          estimate D2E/DX2                !
 ! D159  D(53,48,65,47)       -179.9141         estimate D2E/DX2                !
 ! D160  D(53,48,65,66)          0.0858         estimate D2E/DX2                !
 ! D161  D(45,49,55,59)          0.2468         estimate D2E/DX2                !
 ! D162  D(45,49,55,61)        179.9045         estimate D2E/DX2                !
 ! D163  D(54,49,55,59)       -179.4116         estimate D2E/DX2                !
 ! D164  D(54,49,55,61)          0.2462         estimate D2E/DX2                !
 ! D165  D(46,50,56,52)          0.592          estimate D2E/DX2                !
 ! D166  D(46,50,56,62)       -179.8578         estimate D2E/DX2                !
 ! D167  D(57,50,56,52)       -179.0671         estimate D2E/DX2                !
 ! D168  D(57,50,56,62)          0.4831         estimate D2E/DX2                !
 ! D169  D(47,52,56,50)         -0.4064         estimate D2E/DX2                !
 ! D170  D(47,52,56,62)       -179.9535         estimate D2E/DX2                !
 ! D171  D(58,52,56,50)        179.394          estimate D2E/DX2                !
 ! D172  D(58,52,56,62)         -0.1531         estimate D2E/DX2                !
 ! D173  D(48,53,59,55)         -0.4063         estimate D2E/DX2                !
 ! D174  D(48,53,59,63)       -179.9535         estimate D2E/DX2                !
 ! D175  D(60,53,59,55)        179.394          estimate D2E/DX2                !
 ! D176  D(60,53,59,63)         -0.1531         estimate D2E/DX2                !
 ! D177  D(49,55,59,53)          0.5919         estimate D2E/DX2                !
 ! D178  D(49,55,59,63)       -179.8579         estimate D2E/DX2                !
 ! D179  D(61,55,59,53)       -179.0671         estimate D2E/DX2                !
 ! D180  D(61,55,59,63)          0.4831         estimate D2E/DX2                !
 --------------------------------------------------------------------------------
 Trust Radius=3.00D-01 FncErr=1.00D-07 GrdErr=1.00D-06 EigMax=2.50D+02 EigMin=1.00D-04
 Number of steps in this run=    379 maximum allowed number of steps=    396.
 GradGradGradGradGradGradGradGradGradGradGradGradGradGradGradGradGradGrad

 Leave Link  103 at Fri Aug 15 20:57:56 2025, MaxMem=  7516192768 cpu:               1.3 elap:               0.2
 (Enter /share/apps/softwares/gaussian/16/g16/l202.exe)
 Stoichiometry    C39H27(2)
 Framework group  C1[X(C39H27)]
 Deg. of freedom   192
 Full point group                 C1      NOp   1
 Largest Abelian subgroup         C1      NOp   1
 Largest concise Abelian subgroup C1      NOp   1
                         Standard orientation:                         
 ---------------------------------------------------------------------
 Center     Atomic      Atomic             Coordinates (Angstroms)
 Number     Number       Type             X           Y           Z
 ---------------------------------------------------------------------
      1          6           0       -0.579997   -0.000019    0.000011
      2          6           0       -1.305825    0.622960   -1.029104
      3          6           0       -2.696659    0.621991   -1.029187
      4          6           0       -3.417023   -0.000007    0.000005
      5          6           0       -2.696669   -0.622013    1.029200
      6          6           0       -1.305835   -0.622993    1.029123
      7          6           0        0.896418   -0.000025    0.000014
      8          6           0        1.626801   -0.057278   -1.201256
      9          6           0        3.012162   -0.054374   -1.204562
     10          6           0        3.754571   -0.000021    0.000017
     11          6           0        3.012158    0.054314    1.204595
     12          6           0        1.626797    0.057217    1.201287
     13          1           0       -0.772634    1.134255   -1.824056
     14          1           0       -3.239063    1.114025   -1.830492
     15          1           0       -3.239080   -1.114043    1.830502
     16          1           0       -0.772652   -1.134292    1.824078
     17          1           0        1.095173   -0.145199   -2.143460
     18          1           0        1.095168    0.145129    2.143489
     19          6           0        5.207765   -0.000009    0.000018
     20          6           0        5.942402    1.232699   -0.275139
     21          6           0        6.491774    1.487267   -1.552532
     22          6           0        6.134285    2.213117    0.724969
     23          6           0        7.188904    2.660842   -1.814649
     24          6           0        6.836170    3.383271    0.459676
     25          1           0        5.743790    2.032204    1.720182
     26          6           0        7.366892    3.616911   -0.811426
     27          1           0        7.588644    2.835748   -2.809098
     28          6           0        5.942437   -1.232675    0.275157
     29          6           0        6.134348   -2.213072   -0.724978
     30          6           0        6.491833   -1.487257    1.552543
     31          6           0        6.836283   -3.383201   -0.459718
     32          6           0        7.189022   -2.660804    1.814618
     33          6           0        7.367042   -3.616842    0.811370
     34          1           0        6.979317   -4.113119   -1.250977
     35          1           0        7.588781   -2.835716    2.809057
     36          1           0        7.913302    4.531985   -1.017305
     37          1           0        6.345023    0.758780   -2.342098
     38          1           0        6.979190    4.113210    1.250919
     39          1           0        7.913499   -4.531896    1.017220
     40          1           0        5.743807   -2.032162   -1.720173
     41          1           0        6.345052   -0.758805    2.342136
     42          1           0        3.543268    0.130586    2.146550
     43          1           0        3.543270   -0.130675   -2.146517
     44          6           0       -5.609576   -1.202387   -0.238172
     45          6           0       -5.609572    1.202383    0.238169
     46          6           0       -4.946015   -2.439681   -0.515328
     47          6           0       -7.053735   -1.197484   -0.229483
     48          6           0       -7.053730    1.197487    0.229474
     49          6           0       -4.946006    2.439675    0.515329
     50          6           0       -5.654793   -3.589770   -0.740505
     51          1           0       -3.863330   -2.453057   -0.550362
     52          6           0       -7.753613   -2.420470   -0.465709
     53          6           0       -7.753603    2.420477    0.465697
     54          1           0       -3.863320    2.453044    0.550368
     55          6           0       -5.654779    3.589766    0.740502
     56          6           0       -7.078068   -3.584752   -0.709998
     57          1           0       -5.128719   -4.516041   -0.950313
     58          1           0       -8.839801   -2.401963   -0.449596
     59          6           0       -7.078055    3.584756    0.709989
     60          1           0       -8.839791    2.401974    0.449580
     61          1           0       -5.128702    4.516034    0.950312
     62          1           0       -7.622267   -4.506968   -0.888667
     63          1           0       -7.622250    4.506973    0.888656
     64          6           0       -4.906295   -0.000003    0.000001
     65          6           0       -7.735410    0.000003   -0.000006
     66          1           0       -8.822525    0.000005   -0.000009
 ---------------------------------------------------------------------
 Rotational constants (GHZ):           0.1963841           0.0317681           0.0286030
 Leave Link  202 at Fri Aug 15 20:57:57 2025, MaxMem=  7516192768 cpu:               0.3 elap:               0.1
 (Enter /share/apps/softwares/gaussian/16/g16/l301.exe)
 Standard basis: 6-31G(d,p) (6D, 7F)
 Ernie: Thresh=  0.10000D-02 Tol=  0.10000D-05 Strict=F.
 There are   720 symmetry adapted cartesian basis functions of A   symmetry.
 There are   720 symmetry adapted basis functions of A   symmetry.
   720 basis functions,  1281 primitive gaussians,   720 cartesian basis functions
   131 alpha electrons      130 beta electrons
       nuclear repulsion energy      3542.8609657907 Hartrees.
 IExCor=  402 DFT=T Ex+Corr=B3LYP ExCW=0 ScaHFX=  0.200000
 ScaDFX=  0.800000  0.720000  1.000000  0.810000 ScalE2=  1.000000  1.000000
 IRadAn=      5 IRanWt=     -1 IRanGd=            0 ICorTp=0 IEmpDi=141
 NAtoms=   66 NActive=   66 NUniq=   66 SFac= 1.00D+00 NAtFMM=   60 NAOKFM=T Big=T
 Integral buffers will be    131072 words long.
 Raffenetti 2 integral format.
 Two-electron integral symmetry is turned on.
 R6Disp:  Grimme-D3(BJ) Dispersion energy=       -0.1704592209 Hartrees.
 Nuclear repulsion after empirical dispersion term =     3542.6905065698 Hartrees.
 Leave Link  301 at Fri Aug 15 20:57:58 2025, MaxMem=  7516192768 cpu:               3.0 elap:               0.2
 (Enter /share/apps/softwares/gaussian/16/g16/l302.exe)
 NPDir=0 NMtPBC=     1 NCelOv=     1 NCel=       1 NClECP=     1 NCelD=      1
         NCelK=      1 NCelE2=     1 NClLst=     1 CellRange=     0.0.
 One-electron integrals computed using PRISM.
 One-electron integral symmetry used in STVInt
 NBasis=   720 RedAO= T EigKep=  1.82D-04  NBF=   720
 NBsUse=   720 1.00D-06 EigRej= -1.00D+00 NBFU=   720
 Precomputing XC quadrature grid using
 IXCGrd= 4 IRadAn=           5 IRanWt=          -1 IRanGd=           0 AccXCQ= 0.00D+00.
 Generated NRdTot=       0 NPtTot=           0 NUsed=           0 NTot=          32
 NSgBfM=   670   665   665   670   670 MxSgAt=    66 MxSgA2=    66.
 Leave Link  302 at Fri Aug 15 20:58:00 2025, MaxMem=  7516192768 cpu:              29.1 elap:               1.5
 (Enter /share/apps/softwares/gaussian/16/g16/l303.exe)
 DipDrv:  MaxL=1.
 Leave Link  303 at Fri Aug 15 20:58:01 2025, MaxMem=  7516192768 cpu:               3.0 elap:               0.3
 (Enter /share/apps/softwares/gaussian/16/g16/l401.exe)
 ExpMin= 1.61D-01 ExpMax= 3.05D+03 ExpMxC= 4.57D+02 IAcc=3 IRadAn=         5 AccDes= 0.00D+00
 Harris functional with IExCor=  402 and IRadAn=       5 diagonalized for initial guess.
 HarFok:  IExCor=  402 AccDes= 0.00D+00 IRadAn=         5 IDoV= 1 UseB2=F ITyADJ=14
 ICtDFT=  3500011 ScaDFX=  1.000000  1.000000  1.000000  1.000000
 FoFCou: FMM=F IPFlag=           0 FMFlag=      100000 FMFlg1=        2001
         NFxFlg=           0 DoJE=T BraDBF=F KetDBF=T FulRan=T
         wScrn=  0.000000 ICntrl=       500 IOpCl=  0 I1Cent=   200000004 NGrid=           0
         NMat0=    1 NMatS0=      1 NMatT0=    0 NMatD0=    1 NMtDS0=    0 NMtDT0=    0
 Petite list used in FoFCou.
 Harris En= -1502.62329877432    
 JPrj=0 DoOrth=F DoCkMO=F.
 Initial guess <Sx>= 0.0000 <Sy>= 0.0000 <Sz>= 0.5000 <S**2>= 0.7500 S= 0.5000
 Leave Link  401 at Fri Aug 15 20:58:06 2025, MaxMem=  7516192768 cpu:              78.1 elap:               3.5
 (Enter /share/apps/softwares/gaussian/16/g16/l502.exe)
 Integral symmetry usage will be decided dynamically.
 UHF open shell SCF:
 Using DIIS extrapolation, IDIIS=  1040.
 NGot=  7516192768 LenX=  7515129813 LenY=  7514610693
 Requested convergence on RMS density matrix=1.00D-08 within 128 cycles.
 Requested convergence on MAX density matrix=1.00D-06.
 Requested convergence on             energy=1.00D-06.
 No special actions if energy rises.
 Fock matrices will be formed incrementally for  20 cycles.
 Integral accuracy reduced to 1.0D-05 until final iterations.

 Cycle   1  Pass 0  IDiag  1:
 FoFJK:  IHMeth= 1 ICntrl=       0 DoSepK=F KAlg= 0 I1Cent=           0 FoldK=F
 IRaf= 670000000 NMat=       1 IRICut=       1 DoRegI=T DoRafI=F ISym2E= 0 IDoP0=0 IntGTp=1.
 FoFCou: FMM=T IPFlag=           0 FMFlag=      100000 FMFlg1=        2001
         NFxFlg=           0 DoJE=F BraDBF=F KetDBF=F FulRan=T
         wScrn=  0.000000 ICntrl=         0 IOpCl=  1 I1Cent=           0 NGrid=           0
         NMat0=    1 NMatS0=      1 NMatT0=    0 NMatD0=    1 NMtDS0=    0 NMtDT0=    0
 Symmetry not used in FoFCou.
 FMM levels:  10  Number of levels for PrismC:   9
 E= -1501.82541914685    
 DIIS: error= 4.17D-02 at cycle   1 NSaved=   1.
 NSaved= 1 IEnMin= 1 EnMin= -1501.82541914685     IErMin= 1 ErrMin= 4.17D-02
 ErrMax= 4.17D-02  0.00D+00 EMaxC= 1.00D-01 BMatC= 2.76D+00 BMatP= 2.76D+00
 IDIUse=3 WtCom= 5.83D-01 WtEn= 4.17D-01
 Coeff-Com:  0.100D+01
 Coeff-En:   0.100D+01
 Coeff:      0.100D+01
 Gap=     0.166 Goal=   None    Shift=    0.000
 Gap=     0.100 Goal=   None    Shift=    0.000
 GapD=    0.100 DampG=0.500 DampE=0.500 DampFc=0.2500 IDamp=-1.
 Damping current iteration by 2.50D-01
 RMSDP=2.92D-03 MaxDP=1.44D-01              OVMax= 1.48D-01

 Cycle   2  Pass 0  IDiag  1:
 RMSU=  6.98D-04    CP:  9.82D-01
 E= -1502.09602127407     Delta-E=       -0.270602127225 Rises=F Damp=T
 DIIS: error= 2.29D-02 at cycle   2 NSaved=   2.
 NSaved= 2 IEnMin= 2 EnMin= -1502.09602127407     IErMin= 2 ErrMin= 2.29D-02
 ErrMax= 2.29D-02  0.00D+00 EMaxC= 1.00D-01 BMatC= 8.80D-01 BMatP= 2.76D+00
 IDIUse=3 WtCom= 7.71D-01 WtEn= 2.29D-01
 Coeff-Com: -0.110D+01 0.210D+01
 Coeff-En:   0.000D+00 0.100D+01
 Coeff:     -0.848D+00 0.185D+01
 Gap=     0.129 Goal=   None    Shift=    0.000
 Gap=     0.141 Goal=   None    Shift=    0.000
 RMSDP=1.32D-03 MaxDP=8.08D-02 DE=-2.71D-01 OVMax= 8.05D-02

 Cycle   3  Pass 0  IDiag  1:
 RMSU=  7.66D-04    CP:  9.42D-01  2.39D+00
 E= -1502.58439194788     Delta-E=       -0.488370673814 Rises=F Damp=F
 DIIS: error= 3.32D-03 at cycle   3 NSaved=   3.
 NSaved= 3 IEnMin= 3 EnMin= -1502.58439194788     IErMin= 3 ErrMin= 3.32D-03
 ErrMax= 3.32D-03  0.00D+00 EMaxC= 1.00D-01 BMatC= 5.79D-02 BMatP= 8.80D-01
 IDIUse=3 WtCom= 9.67D-01 WtEn= 3.32D-02
 Coeff-Com: -0.302D+00 0.617D+00 0.684D+00
 Coeff-En:   0.000D+00 0.000D+00 0.100D+01
 Coeff:     -0.292D+00 0.597D+00 0.695D+00
 Gap=     0.146 Goal=   None    Shift=    0.000
 Gap=     0.129 Goal=   None    Shift=    0.000
 RMSDP=4.22D-04 MaxDP=3.45D-02 DE=-4.88D-01 OVMax= 6.33D-02

 Cycle   4  Pass 0  IDiag  1:
 RMSU=  3.85D-04    CP:  9.44D-01  2.29D+00  7.97D-01
 E= -1502.58387865214     Delta-E=        0.000513295749 Rises=F Damp=F
 DIIS: error= 4.39D-03 at cycle   4 NSaved=   4.
 NSaved= 4 IEnMin= 3 EnMin= -1502.58439194788     IErMin= 3 ErrMin= 3.32D-03
 ErrMax= 4.39D-03  0.00D+00 EMaxC= 1.00D-01 BMatC= 5.66D-02 BMatP= 5.79D-02
 IDIUse=3 WtCom= 9.56D-01 WtEn= 4.39D-02
 Coeff-Com: -0.378D-01 0.107D+00 0.492D+00 0.439D+00
 Coeff-En:   0.000D+00 0.000D+00 0.506D+00 0.494D+00
 Coeff:     -0.362D-01 0.102D+00 0.493D+00 0.441D+00
 Gap=     0.128 Goal=   None    Shift=    0.000
 Gap=     0.132 Goal=   None    Shift=    0.000
 RMSDP=2.47D-04 MaxDP=1.88D-02 DE= 5.13D-04 OVMax= 4.77D-02

 Cycle   5  Pass 0  IDiag  1:
 RMSU=  1.14D-04    CP:  9.44D-01  2.30D+00  8.53D-01  4.43D-01
 E= -1502.59930877558     Delta-E=       -0.015430123447 Rises=F Damp=F
 DIIS: error= 1.56D-03 at cycle   5 NSaved=   5.
 NSaved= 5 IEnMin= 5 EnMin= -1502.59930877558     IErMin= 5 ErrMin= 1.56D-03
 ErrMax= 1.56D-03  0.00D+00 EMaxC= 1.00D-01 BMatC= 4.44D-03 BMatP= 5.66D-02
 IDIUse=3 WtCom= 9.84D-01 WtEn= 1.56D-02
 Coeff-Com:  0.761D-02 0.296D-03 0.220D+00 0.274D+00 0.497D+00
 Coeff-En:   0.000D+00 0.000D+00 0.000D+00 0.397D-01 0.960D+00
 Coeff:      0.749D-02 0.291D-03 0.217D+00 0.271D+00 0.505D+00
 Gap=     0.128 Goal=   None    Shift=    0.000
 Gap=     0.128 Goal=   None    Shift=    0.000
 RMSDP=6.91D-05 MaxDP=4.58D-03 DE=-1.54D-02 OVMax= 1.45D-02

 Cycle   6  Pass 0  IDiag  1:
 RMSU=  4.27D-05    CP:  9.44D-01  2.31D+00  8.59D-01  5.02D-01  5.73D-01
 E= -1502.60038145255     Delta-E=       -0.001072676965 Rises=F Damp=F
 DIIS: error= 6.33D-04 at cycle   6 NSaved=   6.
 NSaved= 6 IEnMin= 6 EnMin= -1502.60038145255     IErMin= 6 ErrMin= 6.33D-04
 ErrMax= 6.33D-04  0.00D+00 EMaxC= 1.00D-01 BMatC= 6.73D-04 BMatP= 4.44D-03
 IDIUse=3 WtCom= 9.94D-01 WtEn= 6.33D-03
 Coeff-Com:  0.804D-02-0.103D-01 0.794D-01 0.121D+00 0.327D+00 0.475D+00
 Coeff-En:   0.000D+00 0.000D+00 0.000D+00 0.000D+00 0.126D+00 0.874D+00
 Coeff:      0.799D-02-0.103D-01 0.789D-01 0.120D+00 0.326D+00 0.478D+00
 Gap=     0.128 Goal=   None    Shift=    0.000
 Gap=     0.128 Goal=   None    Shift=    0.000
 RMSDP=2.61D-05 MaxDP=1.62D-03 DE=-1.07D-03 OVMax= 5.29D-03

 Cycle   7  Pass 0  IDiag  1:
 RMSU=  1.27D-05    CP:  9.44D-01  2.30D+00  8.64D-01  5.07D-01  6.59D-01
                    CP:  5.28D-01
 E= -1502.60055842883     Delta-E=       -0.000176976280 Rises=F Damp=F
 DIIS: error= 1.62D-04 at cycle   7 NSaved=   7.
 NSaved= 7 IEnMin= 7 EnMin= -1502.60055842883     IErMin= 7 ErrMin= 1.62D-04
 ErrMax= 1.62D-04  0.00D+00 EMaxC= 1.00D-01 BMatC= 6.89D-05 BMatP= 6.73D-04
 IDIUse=3 WtCom= 9.98D-01 WtEn= 1.62D-03
 Coeff-Com:  0.455D-02-0.693D-02 0.277D-01 0.488D-01 0.155D+00 0.298D+00
 Coeff-Com:  0.473D+00
 Coeff-En:   0.000D+00 0.000D+00 0.000D+00 0.000D+00 0.000D+00 0.307D-01
 Coeff-En:   0.969D+00
 Coeff:      0.454D-02-0.692D-02 0.277D-01 0.487D-01 0.155D+00 0.298D+00
 Coeff:      0.474D+00
 Gap=     0.128 Goal=   None    Shift=    0.000
 Gap=     0.128 Goal=   None    Shift=    0.000
 RMSDP=8.18D-06 MaxDP=7.16D-04 DE=-1.77D-04 OVMax= 1.94D-03

 Initial convergence to 1.0D-05 achieved.  Increase integral accuracy.
 Cycle   8  Pass 1  IDiag  1:
 E= -1502.60065511339     Delta-E=       -0.000096684564 Rises=F Damp=F
 DIIS: error= 2.47D-04 at cycle   1 NSaved=   1.
 NSaved= 1 IEnMin= 1 EnMin= -1502.60065511339     IErMin= 1 ErrMin= 2.47D-04
 ErrMax= 2.47D-04  0.00D+00 EMaxC= 1.00D-01 BMatC= 5.56D-05 BMatP= 5.56D-05
 IDIUse=3 WtCom= 9.98D-01 WtEn= 2.47D-03
 Coeff-Com:  0.100D+01
 Coeff-En:   0.100D+01
 Coeff:      0.100D+01
 Gap=     0.128 Goal=   None    Shift=    0.000
 Gap=     0.128 Goal=   None    Shift=    0.000
 RMSDP=8.18D-06 MaxDP=7.16D-04 DE=-9.67D-05 OVMax= 1.92D-03

 Cycle   9  Pass 1  IDiag  1:
 RMSU=  9.44D-05    CP:  1.00D+00
 E= -1502.60065763386     Delta-E=       -0.000002520469 Rises=F Damp=F
 DIIS: error= 1.53D-04 at cycle   2 NSaved=   2.
 NSaved= 2 IEnMin= 2 EnMin= -1502.60065763386     IErMin= 2 ErrMin= 1.53D-04
 ErrMax= 1.53D-04  0.00D+00 EMaxC= 1.00D-01 BMatC= 3.65D-05 BMatP= 5.56D-05
 IDIUse=3 WtCom= 9.98D-01 WtEn= 1.53D-03
 Coeff-Com:  0.421D+00 0.579D+00
 Coeff-En:   0.413D+00 0.587D+00
 Coeff:      0.421D+00 0.579D+00
 Gap=     0.128 Goal=   None    Shift=    0.000
 Gap=     0.128 Goal=   None    Shift=    0.000
 RMSDP=1.00D-05 MaxDP=1.01D-03 DE=-2.52D-06 OVMax= 2.87D-03

 Cycle  10  Pass 1  IDiag  1:
 RMSU=  1.00D-05    CP:  1.00D+00  9.98D-01
 E= -1502.60065774153     Delta-E=       -0.000000107668 Rises=F Damp=F
 DIIS: error= 1.70D-04 at cycle   3 NSaved=   3.
 NSaved= 3 IEnMin= 3 EnMin= -1502.60065774153     IErMin= 2 ErrMin= 1.53D-04
 ErrMax= 1.70D-04  0.00D+00 EMaxC= 1.00D-01 BMatC= 3.65D-05 BMatP= 3.65D-05
 IDIUse=3 WtCom= 9.98D-01 WtEn= 1.70D-03
 Coeff-Com:  0.362D-02 0.499D+00 0.498D+00
 Coeff-En:   0.000D+00 0.498D+00 0.502D+00
 Coeff:      0.362D-02 0.499D+00 0.498D+00
 Gap=     0.128 Goal=   None    Shift=    0.000
 Gap=     0.128 Goal=   None    Shift=    0.000
 RMSDP=5.49D-06 MaxDP=4.89D-04 DE=-1.08D-07 OVMax= 1.64D-03

 Cycle  11  Pass 1  IDiag  1:
 RMSU=  1.49D-06    CP:  1.00D+00  1.01D+00  4.82D-01
 E= -1502.60066850177     Delta-E=       -0.000010760244 Rises=F Damp=F
 DIIS: error= 2.42D-05 at cycle   4 NSaved=   4.
 NSaved= 4 IEnMin= 4 EnMin= -1502.60066850177     IErMin= 4 ErrMin= 2.42D-05
 ErrMax= 2.42D-05  0.00D+00 EMaxC= 1.00D-01 BMatC= 1.06D-06 BMatP= 3.65D-05
 IDIUse=1 WtCom= 1.00D+00 WtEn= 0.00D+00
 Coeff-Com: -0.831D-02 0.299D+00 0.313D+00 0.397D+00
 Coeff:     -0.831D-02 0.299D+00 0.313D+00 0.397D+00
 Gap=     0.128 Goal=   None    Shift=    0.000
 Gap=     0.128 Goal=   None    Shift=    0.000
 RMSDP=8.99D-07 MaxDP=5.70D-05 DE=-1.08D-05 OVMax= 1.94D-04

 Cycle  12  Pass 1  IDiag  1:
 RMSU=  7.45D-07    CP:  1.00D+00  1.01D+00  5.06D-01  7.03D-01
 E= -1502.60066882565     Delta-E=       -0.000000323874 Rises=F Damp=F
 DIIS: error= 1.22D-05 at cycle   5 NSaved=   5.
 NSaved= 5 IEnMin= 5 EnMin= -1502.60066882565     IErMin= 5 ErrMin= 1.22D-05
 ErrMax= 1.22D-05  0.00D+00 EMaxC= 1.00D-01 BMatC= 1.02D-07 BMatP= 1.06D-06
 IDIUse=1 WtCom= 1.00D+00 WtEn= 0.00D+00
 Coeff-Com: -0.318D-02-0.293D-01-0.255D-01 0.109D+00 0.949D+00
 Coeff:     -0.318D-02-0.293D-01-0.255D-01 0.109D+00 0.949D+00
 Gap=     0.128 Goal=   None    Shift=    0.000
 Gap=     0.128 Goal=   None    Shift=    0.000
 RMSDP=7.00D-07 MaxDP=8.76D-05 DE=-3.24D-07 OVMax= 1.83D-04

 Cycle  13  Pass 1  IDiag  1:
 RMSU=  5.17D-07    CP:  1.00D+00  1.01D+00  5.07D-01  9.96D-01  1.25D+00
 E= -1502.60066891953     Delta-E=       -0.000000093882 Rises=F Damp=F
 DIIS: error= 1.24D-05 at cycle   6 NSaved=   6.
 NSaved= 6 IEnMin= 6 EnMin= -1502.60066891953     IErMin= 5 ErrMin= 1.22D-05
 ErrMax= 1.24D-05  0.00D+00 EMaxC= 1.00D-01 BMatC= 1.43D-07 BMatP= 1.02D-07
 IDIUse=1 WtCom= 1.00D+00 WtEn= 0.00D+00
 Coeff-Com:  0.308D-02-0.273D+00-0.280D+00-0.195D+00 0.106D+01 0.680D+00
 Coeff:      0.308D-02-0.273D+00-0.280D+00-0.195D+00 0.106D+01 0.680D+00
 Gap=     0.128 Goal=   None    Shift=    0.000
 Gap=     0.128 Goal=   None    Shift=    0.000
 RMSDP=7.55D-07 MaxDP=1.01D-04 DE=-9.39D-08 OVMax= 2.03D-04

 Cycle  14  Pass 1  IDiag  1:
 RMSU=  2.50D-07    CP:  1.00D+00  1.01D+00  5.10D-01  1.27D+00  2.02D+00
                    CP:  8.49D-01
 E= -1502.60066902746     Delta-E=       -0.000000107937 Rises=F Damp=F
 DIIS: error= 3.95D-06 at cycle   7 NSaved=   7.
 NSaved= 7 IEnMin= 7 EnMin= -1502.60066902746     IErMin= 7 ErrMin= 3.95D-06
 ErrMax= 3.95D-06  0.00D+00 EMaxC= 1.00D-01 BMatC= 9.28D-09 BMatP= 1.02D-07
 IDIUse=1 WtCom= 1.00D+00 WtEn= 0.00D+00
 Coeff-Com:  0.179D-02-0.103D+00-0.106D+00-0.983D-01 0.254D+00 0.271D+00
 Coeff-Com:  0.782D+00
 Coeff:      0.179D-02-0.103D+00-0.106D+00-0.983D-01 0.254D+00 0.271D+00
 Coeff:      0.782D+00
 Gap=     0.128 Goal=   None    Shift=    0.000
 Gap=     0.128 Goal=   None    Shift=    0.000
 RMSDP=2.43D-07 MaxDP=2.89D-05 DE=-1.08D-07 OVMax= 6.28D-05

 Cycle  15  Pass 1  IDiag  1:
 RMSU=  1.18D-07    CP:  1.00D+00  1.01D+00  5.12D-01  1.35D+00  2.21D+00
                    CP:  1.05D+00  1.12D+00
 E= -1502.60066903823     Delta-E=       -0.000000010768 Rises=F Damp=F
 DIIS: error= 2.37D-06 at cycle   8 NSaved=   8.
 NSaved= 8 IEnMin= 8 EnMin= -1502.60066903823     IErMin= 8 ErrMin= 2.37D-06
 ErrMax= 2.37D-06  0.00D+00 EMaxC= 1.00D-01 BMatC= 3.97D-09 BMatP= 9.28D-09
 IDIUse=1 WtCom= 1.00D+00 WtEn= 0.00D+00
 Coeff-Com:  0.107D-03 0.217D-01 0.220D-01 0.109D-02-0.176D+00-0.439D-01
 Coeff-Com:  0.448D+00 0.727D+00
 Coeff:      0.107D-03 0.217D-01 0.220D-01 0.109D-02-0.176D+00-0.439D-01
 Coeff:      0.448D+00 0.727D+00
 Gap=     0.128 Goal=   None    Shift=    0.000
 Gap=     0.128 Goal=   None    Shift=    0.000
 RMSDP=1.35D-07 MaxDP=1.49D-05 DE=-1.08D-08 OVMax= 3.57D-05

 Cycle  16  Pass 1  IDiag  1:
 RMSU=  6.96D-08    CP:  1.00D+00  1.01D+00  5.13D-01  1.39D+00  2.30D+00
                    CP:  1.13D+00  1.36D+00  8.62D-01
 E= -1502.60066904125     Delta-E=       -0.000000003014 Rises=F Damp=F
 DIIS: error= 1.33D-06 at cycle   9 NSaved=   9.
 NSaved= 9 IEnMin= 9 EnMin= -1502.60066904125     IErMin= 9 ErrMin= 1.33D-06
 ErrMax= 1.33D-06  0.00D+00 EMaxC= 1.00D-01 BMatC= 1.47D-09 BMatP= 3.97D-09
 IDIUse=1 WtCom= 1.00D+00 WtEn= 0.00D+00
 Coeff-Com: -0.647D-03 0.561D-01 0.576D-01 0.399D-01-0.223D+00-0.137D+00
 Coeff-Com: -0.910D-02 0.498D+00 0.718D+00
 Coeff:     -0.647D-03 0.561D-01 0.576D-01 0.399D-01-0.223D+00-0.137D+00
 Coeff:     -0.910D-02 0.498D+00 0.718D+00
 Gap=     0.128 Goal=   None    Shift=    0.000
 Gap=     0.128 Goal=   None    Shift=    0.000
 RMSDP=7.72D-08 MaxDP=8.52D-06 DE=-3.01D-09 OVMax= 1.96D-05

 Cycle  17  Pass 1  IDiag  1:
 RMSU=  3.13D-08    CP:  1.00D+00  1.01D+00  5.13D-01  1.41D+00  2.34D+00
                    CP:  1.19D+00  1.48D+00  1.12D+00  8.10D-01
 E= -1502.60066904205     Delta-E=       -0.000000000809 Rises=F Damp=F
 DIIS: error= 3.02D-07 at cycle  10 NSaved=  10.
 NSaved=10 IEnMin=10 EnMin= -1502.60066904205     IErMin=10 ErrMin= 3.02D-07
 ErrMax= 3.02D-07  0.00D+00 EMaxC= 1.00D-01 BMatC= 2.19D-10 BMatP= 1.47D-09
 IDIUse=1 WtCom= 1.00D+00 WtEn= 0.00D+00
 Coeff-Com: -0.390D-03 0.304D-01 0.312D-01 0.232D-01-0.110D+00-0.764D-01
 Coeff-Com: -0.563D-01 0.216D+00 0.422D+00 0.521D+00
 Coeff:     -0.390D-03 0.304D-01 0.312D-01 0.232D-01-0.110D+00-0.764D-01
 Coeff:     -0.563D-01 0.216D+00 0.422D+00 0.521D+00
 Gap=     0.128 Goal=   None    Shift=    0.000
 Gap=     0.128 Goal=   None    Shift=    0.000
 RMSDP=1.61D-08 MaxDP=1.40D-06 DE=-8.09D-10 OVMax= 3.18D-06

 Cycle  18  Pass 1  IDiag  1:
 RMSU=  1.13D-08    CP:  1.00D+00  1.01D+00  5.13D-01  1.41D+00  2.35D+00
                    CP:  1.19D+00  1.50D+00  1.14D+00  9.06D-01  8.87D-01
 E= -1502.60066904215     Delta-E=       -0.000000000092 Rises=F Damp=F
 DIIS: error= 1.03D-07 at cycle  11 NSaved=  11.
 NSaved=11 IEnMin=11 EnMin= -1502.60066904215     IErMin=11 ErrMin= 1.03D-07
 ErrMax= 1.03D-07  0.00D+00 EMaxC= 1.00D-01 BMatC= 1.98D-11 BMatP= 2.19D-10
 IDIUse=1 WtCom= 1.00D+00 WtEn= 0.00D+00
 Coeff-Com: -0.530D-04 0.336D-02 0.344D-02 0.301D-02-0.901D-02-0.948D-02
 Coeff-Com: -0.207D-01 0.104D-01 0.560D-01 0.207D+00 0.756D+00
 Coeff:     -0.530D-04 0.336D-02 0.344D-02 0.301D-02-0.901D-02-0.948D-02
 Coeff:     -0.207D-01 0.104D-01 0.560D-01 0.207D+00 0.756D+00
 Gap=     0.128 Goal=   None    Shift=    0.000
 Gap=     0.128 Goal=   None    Shift=    0.000
 RMSDP=7.28D-09 MaxDP=6.26D-07 DE=-9.19D-11 OVMax= 1.56D-06

 SCF Done:  E(UB3LYP) =  -1502.60066904     A.U. after   18 cycles
            NFock= 18  Conv=0.73D-08     -V/T= 2.0098
 <Sx>= 0.0000 <Sy>= 0.0000 <Sz>= 0.5000 <S**2>= 0.7544 S= 0.5022
 <L.S>=  0.00000000000    
 KE= 1.488010710071D+03 PE=-1.056431063493D+04 EE= 4.031008749248D+03
 Annihilation of the first spin contaminant:
 S**2 before annihilation     0.7544,   after     0.7500
 Leave Link  502 at Fri Aug 15 21:00:29 2025, MaxMem=  7516192768 cpu:            3398.8 elap:             142.1
 (Enter /share/apps/softwares/gaussian/16/g16/l601.exe)
 Copying SCF densities to generalized density rwf, IOpCl= 1 IROHF=0.

 **********************************************************************

            Population analysis using the SCF Density.

 **********************************************************************

 Orbital symmetries:
 Alpha Orbitals:
       Occupied  (A) (A) (A) (A) (A) (A) (A) (A) (A) (A) (A) (A)
                 (A) (A) (A) (A) (A) (A) (A) (A) (A) (A) (A) (A)
                 (A) (A) (A) (A) (A) (A) (A) (A) (A) (A) (A) (A)
                 (A) (A) (A) (A) (A) (A) (A) (A) (A) (A) (A) (A)
                 (A) (A) (A) (A) (A) (A) (A) (A) (A) (A) (A) (A)
                 (A) (A) (A) (A) (A) (A) (A) (A) (A) (A) (A) (A)
                 (A) (A) (A) (A) (A) (A) (A) (A) (A) (A) (A) (A)
                 (A) (A) (A) (A) (A) (A) (A) (A) (A) (A) (A) (A)
                 (A) (A) (A) (A) (A) (A) (A) (A) (A) (A) (A) (A)
                 (A) (A) (A) (A) (A) (A) (A) (A) (A) (A) (A) (A)
                 (A) (A) (A) (A) (A) (A) (A) (A) (A) (A) (A)
       Virtual   (A) (A) (A) (A) (A) (A) (A) (A) (A) (A) (A) (A)
                 (A) (A) (A) (A) (A) (A) (A) (A) (A) (A) (A) (A)
                 (A) (A) (A) (A) (A) (A) (A) (A) (A) (A) (A) (A)
                 (A) (A) (A) (A) (A) (A) (A) (A) (A) (A) (A) (A)
                 (A) (A) (A) (A) (A) (A) (A) (A) (A) (A) (A) (A)
                 (A) (A) (A) (A) (A) (A) (A) (A) (A) (A) (A) (A)
                 (A) (A) (A) (A) (A) (A) (A) (A) (A) (A) (A) (A)
                 (A) (A) (A) (A) (A) (A) (A) (A) (A) (A) (A) (A)
                 (A) (A) (A) (A) (A) (A) (A) (A) (A) (A) (A) (A)
                 (A) (A) (A) (A) (A) (A) (A) (A) (A) (A) (A) (A)
                 (A) (A) (A) (A) (A) (A) (A) (A) (A) (A) (A) (A)
                 (A) (A) (A) (A) (A) (A) (A) (A) (A) (A) (A) (A)
                 (A) (A) (A) (A) (A) (A) (A) (A) (A) (A) (A) (A)
                 (A) (A) (A) (A) (A) (A) (A) (A) (A) (A) (A) (A)
                 (A) (A) (A) (A) (A) (A) (A) (A) (A) (A) (A) (A)
                 (A) (A) (A) (A) (A) (A) (A) (A) (A) (A) (A) (A)
                 (A) (A) (A) (A) (A) (A) (A) (A) (A) (A) (A) (A)
                 (A) (A) (A) (A) (A) (A) (A) (A) (A) (A) (A) (A)
                 (A) (A) (A) (A) (A) (A) (A) (A) (A) (A) (A) (A)
                 (A) (A) (A) (A) (A) (A) (A) (A) (A) (A) (A) (A)
                 (A) (A) (A) (A) (A) (A) (A) (A) (A) (A) (A) (A)
                 (A) (A) (A) (A) (A) (A) (A) (A) (A) (A) (A) (A)
                 (A) (A) (A) (A) (A) (A) (A) (A) (A) (A) (A) (A)
                 (A) (A) (A) (A) (A) (A) (A) (A) (A) (A) (A) (A)
                 (A) (A) (A) (A) (A) (A) (A) (A) (A) (A) (A) (A)
                 (A) (A) (A) (A) (A) (A) (A) (A) (A) (A) (A) (A)
                 (A) (A) (A) (A) (A) (A) (A) (A) (A) (A) (A) (A)
                 (A) (A) (A) (A) (A) (A) (A) (A) (A) (A) (A) (A)
                 (A) (A) (A) (A) (A) (A) (A) (A) (A) (A) (A) (A)
                 (A) (A) (A) (A) (A) (A) (A) (A) (A) (A) (A) (A)
                 (A) (A) (A) (A) (A) (A) (A) (A) (A) (A) (A) (A)
                 (A) (A) (A) (A) (A) (A) (A) (A) (A) (A) (A) (A)
                 (A) (A) (A) (A) (A) (A) (A) (A) (A) (A) (A) (A)
                 (A) (A) (A) (A) (A) (A) (A) (A) (A) (A) (A) (A)
                 (A) (A) (A) (A) (A) (A) (A) (A) (A) (A) (A) (A)
                 (A) (A) (A) (A) (A) (A) (A) (A) (A) (A) (A) (A)
                 (A) (A) (A) (A) (A) (A) (A) (A) (A) (A) (A) (A)
                 (A) (A) (A) (A) (A) (A) (A) (A) (A) (A) (A) (A)
                 (A) (A) (A) (A) (A) (A) (A) (A) (A) (A) (A) (A)
                 (A) (A) (A) (A) (A) (A) (A) (A) (A) (A) (A) (A)
                 (A) (A) (A) (A) (A) (A) (A) (A) (A) (A) (A) (A)
                 (A) (A) (A) (A) (A) (A) (A) (A) (A) (A) (A) (A)
                 (A) (A) (A) (A) (A) (A) (A) (A) (A) (A) (A) (A)
                 (A) (A) (A) (A) (A) (A) (A) (A) (A) (A) (A) (A)
                 (A) (A) (A) (A) (A) (A) (A) (A) (A) (A) (A) (A)
                 (A) (A) (A) (A) (A) (A) (A) (A) (A) (A) (A) (A)
                 (A) (A) (A) (A) (A) (A) (A) (A) (A) (A) (A) (A)
                 (A) (A) (A) (A) (A) (A) (A) (A) (A) (A) (A) (A)
                 (A) (A) (A) (A) (A) (A) (A) (A) (A) (A) (A) (A)
                 (A)
 Beta  Orbitals:
       Occupied  (A) (A) (A) (A) (A) (A) (A) (A) (A) (A) (A) (A)
                 (A) (A) (A) (A) (A) (A) (A) (A) (A) (A) (A) (A)
                 (A) (A) (A) (A) (A) (A) (A) (A) (A) (A) (A) (A)
                 (A) (A) (A) (A) (A) (A) (A) (A) (A) (A) (A) (A)
                 (A) (A) (A) (A) (A) (A) (A) (A) (A) (A) (A) (A)
                 (A) (A) (A) (A) (A) (A) (A) (A) (A) (A) (A) (A)
                 (A) (A) (A) (A) (A) (A) (A) (A) (A) (A) (A) (A)
                 (A) (A) (A) (A) (A) (A) (A) (A) (A) (A) (A) (A)
                 (A) (A) (A) (A) (A) (A) (A) (A) (A) (A) (A) (A)
                 (A) (A) (A) (A) (A) (A) (A) (A) (A) (A) (A) (A)
                 (A) (A) (A) (A) (A) (A) (A) (A) (A) (A)
       Virtual   (A) (A) (A) (A) (A) (A) (A) (A) (A) (A) (A) (A)
                 (A) (A) (A) (A) (A) (A) (A) (A) (A) (A) (A) (A)
                 (A) (A) (A) (A) (A) (A) (A) (A) (A) (A) (A) (A)
                 (A) (A) (A) (A) (A) (A) (A) (A) (A) (A) (A) (A)
                 (A) (A) (A) (A) (A) (A) (A) (A) (A) (A) (A) (A)
                 (A) (A) (A) (A) (A) (A) (A) (A) (A) (A) (A) (A)
                 (A) (A) (A) (A) (A) (A) (A) (A) (A) (A) (A) (A)
                 (A) (A) (A) (A) (A) (A) (A) (A) (A) (A) (A) (A)
                 (A) (A) (A) (A) (A) (A) (A) (A) (A) (A) (A) (A)
                 (A) (A) (A) (A) (A) (A) (A) (A) (A) (A) (A) (A)
                 (A) (A) (A) (A) (A) (A) (A) (A) (A) (A) (A) (A)
                 (A) (A) (A) (A) (A) (A) (A) (A) (A) (A) (A) (A)
                 (A) (A) (A) (A) (A) (A) (A) (A) (A) (A) (A) (A)
                 (A) (A) (A) (A) (A) (A) (A) (A) (A) (A) (A) (A)
                 (A) (A) (A) (A) (A) (A) (A) (A) (A) (A) (A) (A)
                 (A) (A) (A) (A) (A) (A) (A) (A) (A) (A) (A) (A)
                 (A) (A) (A) (A) (A) (A) (A) (A) (A) (A) (A) (A)
                 (A) (A) (A) (A) (A) (A) (A) (A) (A) (A) (A) (A)
                 (A) (A) (A) (A) (A) (A) (A) (A) (A) (A) (A) (A)
                 (A) (A) (A) (A) (A) (A) (A) (A) (A) (A) (A) (A)
                 (A) (A) (A) (A) (A) (A) (A) (A) (A) (A) (A) (A)
                 (A) (A) (A) (A) (A) (A) (A) (A) (A) (A) (A) (A)
                 (A) (A) (A) (A) (A) (A) (A) (A) (A) (A) (A) (A)
                 (A) (A) (A) (A) (A) (A) (A) (A) (A) (A) (A) (A)
                 (A) (A) (A) (A) (A) (A) (A) (A) (A) (A) (A) (A)
                 (A) (A) (A) (A) (A) (A) (A) (A) (A) (A) (A) (A)
                 (A) (A) (A) (A) (A) (A) (A) (A) (A) (A) (A) (A)
                 (A) (A) (A) (A) (A) (A) (A) (A) (A) (A) (A) (A)
                 (A) (A) (A) (A) (A) (A) (A) (A) (A) (A) (A) (A)
                 (A) (A) (A) (A) (A) (A) (A) (A) (A) (A) (A) (A)
                 (A) (A) (A) (A) (A) (A) (A) (A) (A) (A) (A) (A)
                 (A) (A) (A) (A) (A) (A) (A) (A) (A) (A) (A) (A)
                 (A) (A) (A) (A) (A) (A) (A) (A) (A) (A) (A) (A)
                 (A) (A) (A) (A) (A) (A) (A) (A) (A) (A) (A) (A)
                 (A) (A) (A) (A) (A) (A) (A) (A) (A) (A) (A) (A)
                 (A) (A) (A) (A) (A) (A) (A) (A) (A) (A) (A) (A)
                 (A) (A) (A) (A) (A) (A) (A) (A) (A) (A) (A) (A)
                 (A) (A) (A) (A) (A) (A) (A) (A) (A) (A) (A) (A)
                 (A) (A) (A) (A) (A) (A) (A) (A) (A) (A) (A) (A)
                 (A) (A) (A) (A) (A) (A) (A) (A) (A) (A) (A) (A)
                 (A) (A) (A) (A) (A) (A) (A) (A) (A) (A) (A) (A)
                 (A) (A) (A) (A) (A) (A) (A) (A) (A) (A) (A) (A)
                 (A) (A) (A) (A) (A) (A) (A) (A) (A) (A) (A) (A)
                 (A) (A) (A) (A) (A) (A) (A) (A) (A) (A) (A) (A)
                 (A) (A) (A) (A) (A) (A) (A) (A) (A) (A) (A) (A)
                 (A) (A) (A) (A) (A) (A) (A) (A) (A) (A) (A) (A)
                 (A) (A) (A) (A) (A) (A) (A) (A) (A) (A) (A) (A)
                 (A) (A) (A) (A) (A) (A) (A) (A) (A) (A) (A) (A)
                 (A) (A) (A) (A) (A) (A) (A) (A) (A) (A) (A) (A)
                 (A) (A)
 The electronic state is 2-A.
 Alpha  occ. eigenvalues --  -10.20029 -10.19990 -10.19975 -10.19900 -10.19868
 Alpha  occ. eigenvalues --  -10.19863 -10.19821 -10.19758 -10.19724 -10.19711
 Alpha  occ. eigenvalues --  -10.19560 -10.19558 -10.19119 -10.19117 -10.19077
 Alpha  occ. eigenvalues --  -10.19075 -10.19018 -10.19017 -10.18946 -10.18945
 Alpha  occ. eigenvalues --  -10.18944 -10.18943 -10.18937 -10.18936 -10.18890
[...]
 0.00000021,0.00000081,-0.00000276,-0.00000617,0.00000629,-0.00000253,0
 .00000103,-0.00000283,-0.00000210,0.00000422,-0.00000232,0.00000110,-0
 .00000158,-0.00000039,0.00000009,0.00000016,0.00000056,-0.00000089,0.0
 0000110,-0.00000191,-0.00000059,0.00000146,-0.00000023,-0.00000058,-0.
 00000016,-0.00000106,0.00000006,-0.00000062,0.00000035,0.00000130,-0.0
 0000040,-0.00000044,0.00000059,-0.00000067,0.00000021,-0.00000072,0.00
 000047,-0.00000079,0.00000103,-0.00000179,0.00000069,0.00000070,0.0000
 0012,0.00000084,-0.00000672,-0.00001380,-0.00000013,0.00000071,-0.0000
 1615,0.00000391,-0.07534450,-0.22079051,0.00091832,0.06922003,-0.23701
 255,-0.00310228,-0.01475256,-0.06959232,-0.00082723,-0.04344169,0.0382
 1195,0.00164059,0.04926830,0.03081411,-0.00065311,0.00598309,-0.070432
 02,-0.00133516,0.02874384,0.01238191,-0.00090821,-0.00120128,0.0009404
 3,-0.00018956,0.00101217,-0.01536354,-0.00028434,-0.00200891,-0.015075
 93,-0.00018947,0.00134436,0.00085436,-0.00027203,-0.02742516,0.0159093
 2,0.00050359,-0.01935122,0.00944062,0.00101324,-0.00026622,-0.00057221
 ,-0.00010733,0.00078485,0.00043526,-0.00002680,0.02056582,0.00755468,0
 .00003371,-0.00067447,0.00035871,0.00000709,0.00013623,-0.00046285,-0.
 00011355,-0.00028220,0.00026089,0.00002053,0.00029296,0.00023096,0.000
 00601,0.00030411,0.63724556,0.00000260,0.00006059,-0.00149714,0.002080
 68,0.00347461,-0.00299816,0.02676664,-0.00105272,0.00401486,0.00399193
 ,0.00731542,-0.07587761,-0.02527326,0.00114027,0.00570478,-0.00201291,
 0.00364505,-0.00282859,-0.00002330,-0.00043980,0.00023347,0.00007187,-
 0.00002612,-0.00007399,-0.00012575,-0.00000515,-0.00001471,0.00000728,
 0.00003567,0.00010231,0.00011418,-0.00001337,-0.00001372,-0.00007851,-
 0.00002566,-0.00005027,0.00116037,-0.00003558,0.00009015,0.00044700,-0
 .00165231,0.00050233,-0.00063947,-0.00154983,0.00045472,-0.00115329,0.
 00009502,0.00014680,-0.00000113,0.00004261,0.00003148,0.00000939,0.000
 04193,0.00003341,0.00000038,0.00001065,0.00000471,0.00000256,0.0000052
 7,-0.00000625,-0.00000028,-0.00000312,0.00000090,-0.00000030,-0.000002
 31,0.00000019,0.00000119,0.00000003,0.00000041,0.00000100,-0.00000048,
 0.00000086,-0.00000089,0.00000126,0.00000049,0.00000027,-0.00000186,0.
 00000131,-0.00000154,-0.00000016,0.00000115,-0.00000342,-0.00000164,0.
 00000107,-0.00000135,-0.00000030,0.00000015,-0.00000152,0.00000198,0.0
 0000076,-0.00000067,-0.00000096,0.00000076,-0.00000078,-0.00000064,0.0
 0000074,-0.00000043,-0.00000051,0.00000139,0.00000100,-0.00000018,-0.0
 0000056,0.00000090,0.00000018,-0.00000033,-0.00000129,-0.00000072,0.00
 000020,-0.00000040,0.00000097,-0.00000114,-0.00000066,-0.00000054,-0.0
 0000054,0.00000090,-0.00000009,-0.00000036,0.00000132,-0.00000028,-0.0
 0000106,0.00000070,0.00000013,-0.00000150,0.00000252,-0.00000451,0.,-0
 .00000559,-0.00000491,0.00000245,0.00096182,0.00192608,-0.06035634,0.0
 0430621,-0.00280717,-0.06066510,-0.00102623,-0.00135319,0.00299780,0.0
 0058926,0.00076616,0.00321899,0.00075992,-0.00067117,0.00320783,0.0001
 4667,-0.00131067,0.00296939,0.00076298,-0.00017973,0.00437153,-0.00010
 729,-0.00000445,-0.00217473,0.00016177,-0.00026111,0.00395553,0.000272
 88,-0.00019682,0.00396268,0.00003769,0.00001643,-0.00218890,-0.0005767
 3,0.00026276,0.00441849,-0.00016479,0.00024472,-0.00017520,-0.00001706
 ,-0.00008174,0.00043165,0.00002647,0.00000366,0.00020187,0.00035455,0.
 00026279,-0.00018657,0.00001613,-0.00007058,0.00020120,-0.00000299,-0.
 00001782,0.00043384,-0.00003222,0.00000582,-0.00076280,-0.00001191,0.0
 0000416,-0.00076349,-0.01174505,-0.00725467,0.17017653,0.00004903,-0.0
 0000744,0.00001295,-0.00011648,-0.00013788,0.00002434,-0.00025342,0.00
 032388,-0.00027396,-0.00022895,-0.00002234,-0.00000459,-0.00028487,-0.
 00026807,0.00029249,-0.00007661,0.00015122,-0.00003793,0.00002295,-0.0
 0000033,-0.00000112,-0.00003000,0.00001019,-0.00002562,-0.00000734,-0.
 00001077,-0.00001082,-0.00000708,0.00001430,-0.00000358,-0.00000826,0.
 00000561,0.00001176,-0.00002681,-0.00000840,0.00002828,-0.00006417,-0.
 00001823,0.00000395,0.00006346,0.00005064,-0.00001041,0.00004951,-0.00
 004932,-0.00000371,-0.00006216,0.00001885,-0.00000294,0.00000829,-0.00
 000585,-0.00000610,0.00000877,0.00000619,0.00000525,0.00000909,0.00000
 184,0.00001033,-0.00000542,0.00001241,-0.00001248,-0.00000445,-0.00000
 848,-0.00000170,-0.00000588,-0.00000478,0.00000565,0.00000134,-0.00000
 030,-0.00000055,0.00000147,0.00000267,0.00000066,0.00000195,0.00000347
 ,0.00000126,-0.00000069,-0.00000217,0.00000185,-0.00000087,-0.00000086
 ,0.00000222,0.00000154,-0.00001536,0.00000943,-0.00000648,0.00000147,-
 0.00000459,-0.00000401,0.00000917,-0.00000223,0.00000232,-0.00000388,0
 .00000084,-0.00000067,0.00000090,0.00000138,-0.00000169,0.00000080,-0.
 00000370,-0.00000069,0.00000246,-0.00000059,-0.00000109,-0.00000014,-0
 .00000234,-0.00000138,-0.00000163,0.00000119,0.00000182,0.00000026,-0.
 00000198,-0.00000088,-0.00000278,-0.00000056,-0.00000118,0.00000083,-0
 .00000152,0.00000214,-0.00000351,0.00000020,0.00000167,0.00000040,0.00
 000079,-0.00000713,-0.00000024,-0.00000509,-0.00000831,0.00000122,0.00
 000550,-0.02067202,0.03129335,0.00101054,-0.02829293,-0.02552096,0.000
 50684,-0.00551093,-0.00161036,0.00025082,-0.17163613,0.11296016,0.0032
 2893,-0.19171708,-0.12080080,0.00261634,-0.00518372,0.00067195,0.00018
 353,-0.00222056,-0.00022575,0.00009422,-0.00064593,0.00156488,0.000095
 53,0.01662285,-0.01240553,-0.00046072,0.01651690,0.00335471,-0.0001861
 8,-0.00073948,-0.00144298,-0.00005256,-0.00415627,0.00132966,0.0000216
 7,-0.00141636,-0.00653478,0.00007561,0.00018504,0.00004739,-0.00001648
 ,0.00070170,-0.00175209,-0.00009182,0.00205619,0.00796601,0.00021175,0
 .00068584,0.00181715,-0.00006643,0.00014733,-0.00003698,-0.00003828,0.
 00067839,-0.00136026,-0.00006313,0.00079240,0.00123687,0.00004113,-0.0
 0051866,-0.00255040,-0.00002460,0.72705143,0.00000029,-0.00009428,0.00
 028123,-0.00026752,0.00004566,-0.00016077,0.00011311,0.00027769,0.0000
 5145,-0.00001742,-0.00071543,0.00027389,-0.00005580,0.00031538,0.00002
 739,0.00027131,0.00000448,-0.00017133,0.00000009,0.00003468,0.00000241
 ,-0.00000347,0.00000381,-0.00000065,0.00000417,-0.00000465,0.00000362,
 0.00000013,-0.00000198,-0.00000333,-0.00000365,-0.00000503,0.00000294,
 0.00000674,0.00000425,-0.00000368,-0.00000570,-0.00005656,-0.00002405,
 0.00008262,0.00006101,-0.00010853,-0.00008739,0.00007414,-0.00010454,0
 .00000508,-0.00005890,-0.00002391,0.00000129,0.00000221,-0.00000133,-0
 .00000206,0.00000179,-0.00000186,-0.00000075,0.00000136,-0.00000077,0.
 00000011,-0.00000136,0.00000115,0.00000032,0.00000058,-0.00000011,0.00
 000026,0.00000070,-0.00000066,-0.00000017,0.00000011,-0.00000009,-0.00
 000040,-0.00000039,-0.00000029,0.00000010,-0.00000056,0.00000011,-0.00
 000009,0.00000041,-0.00000023,0.00000014,0.,-0.00000009,0.00000045,0.0
 0000047,-0.00000013,0.00000004,-0.00000009,-0.00000045,0.00000005,-0.0
 0000052,-0.00000002,0.00000014,-0.00000005,-0.00000006,0.00000002,0.00
 000006,-0.00000009,0.00000008,0.00000016,-0.00000003,-0.00000024,0.000
 00022,0.00000002,0.00000009,0.,0.00000020,0.00000037,0.00000017,-0.000
 00016,-0.00000007,0.00000012,0.00000030,0.00000038,0.00000046,0.000000
 24,-0.00000010,-0.00000004,0.,-0.00000012,0.00000006,0.00000036,-0.000
 00001,0.00000019,0.00000011,0.00000058,-0.00000037,0.00000037,0.000000
 12,-0.00000045,-0.00000018,0.05087075,0.02989769,-0.00060500,-0.045079
 84,0.03746225,0.00178713,-0.00267239,-0.01451166,-0.00024169,0.0819476
 9,-0.27095521,-0.00321278,-0.08983570,-0.25086749,0.00105602,0.0017328
 3,-0.01484266,-0.00034430,0.02076088,0.00698674,-0.00074325,-0.0005369
 6,0.00047591,-0.00000141,0.00450411,-0.07462206,-0.00053865,-0.0135492
 9,-0.07450715,-0.00010513,0.00065684,0.00056565,-0.00002391,-0.0196695
 2,0.00891168,0.00025854,-0.02697460,0.01648371,0.00137297,0.00034191,0
 .00024035,-0.00009769,0.00201410,0.00133215,0.00002863,0.02843778,0.01
 302087,-0.00000273,-0.00194618,0.00135142,0.00012409,-0.00033710,0.000
 27816,-0.00008034,0.00010911,-0.00044938,-0.00005136,-0.00023450,-0.00
 056116,-0.00004815,-0.00254353,-0.05176391,-0.00032107,-0.00150090,0.6
 9621426,-0.00000159,-0.00002481,0.00003276,0.00000049,0.00002436,-0.00
 004685,0.00017685,-0.00002379,0.00002755,-0.00001473,0.00008483,-0.000
 97692,-0.00016331,0.00000756,0.00002211,0.00000395,0.00001710,-0.00004
 541,-0.00000018,0.00000921,0.00000464,-0.00000109,-0.00000386,-0.00000
 199,-0.00000152,-0.00000003,0.00000076,0.00000003,-0.00000093,0.000002
 66,0.00000224,-0.00000054,0.00000045,0.00000221,-0.00000370,-0.0000034
 2,0.00000736,0.00000206,0.00000086,0.00001719,0.00000080,-0.00001831,-
 0.00002072,0.00000514,-0.00001755,-0.00000400,0.00000175,0.00000136,0.
 00000071,0.00000187,0.00000019,-0.00000095,0.00000164,-0.00000014,-0.0
 0000044,0.00000165,-0.00000020,0.00000089,0.00000022,-0.00000024,0.000
 00030,-0.00000055,0.00000025,0.00000046,-0.00000016,-0.00000047,0.0000
 0038,-0.00000004,-0.00000009,0.00000007,-0.00000045,-0.00000002,-0.000
 00037,-0.00000010,0.00000035,0.00000024,0.00000004,0.00000032,-0.00000
 059,0.00000004,0.00000037,-0.00000089,0.00000068,-0.00000065,-0.000000
 04,-0.00000044,0.00000001,-0.00000013,-0.00000040,0.00000070,-0.000000
 26,0.00000010,0.00000032,-0.00000040,-0.00000032,-0.00000016,-0.000000
 18,-0.00000010,0.00000059,0.00000024,-0.00000013,-0.00000028,0.0000006
 2,0.00000023,0.00000025,-0.00000033,-0.00000020,-0.00000010,-0.0000002
 5,0.00000049,-0.00000020,-0.00000002,0.00000035,-0.00000014,0.00000054
 ,-0.00000024,0.00000009,0.00000020,0.00000030,0.00000002,0.00000009,0.
 00000014,-0.00000067,0.00000137,0.00000009,0.00000031,-0.00000104,0.00
 000013,0.00000017,0.00125196,-0.00042286,0.00487135,0.00022536,0.00104
 244,0.00492075,0.00024224,-0.00025980,0.00405485,0.00263010,-0.0031694
 0,-0.06060287,0.00330567,0.00257974,-0.06060670,0.00019209,-0.00031398
 ,0.00405778,0.00022119,0.00002659,-0.00038209,0.00002719,-0.00000185,0
 .00020230,-0.00034730,-0.00024372,0.00429048,-0.00031164,-0.00063207,0
 .00428250,0.00002057,0.00007284,0.00020590,-0.00007949,0.00000508,-0.0
 0037158,0.00001856,0.00021547,0.00474665,-0.00003484,0.00002543,-0.000
 76643,-0.00012518,0.00007261,-0.00266666,0.00020335,-0.00015523,0.0047
 3674,-0.00003749,-0.00001972,-0.00266893,-0.00000853,0.00002625,-0.000
 76663,-0.00000350,0.00002124,0.00039540,-0.00001448,-0.00004226,0.0003
 9313,-0.00003087,-0.00050713,-0.00060683,-0.01468692,0.00190270,0.1271
 3486,0.00000902,-0.00000069,-0.00000079,-0.00000014,0.00001715,-0.0000
 0327,-0.00002195,-0.00000265,-0.00002080,0.00000203,0.00001045,-0.0000
 2869,-0.00002959,0.00000637,0.00002604,-0.00000304,-0.00001559,0.00000
 104,0.00002900,-0.00000171,-0.00000134,-0.00001493,0.00000358,-0.00000
 266,-0.00000122,-0.00000563,-0.00000337,-0.00000155,0.00000690,-0.0000
 0128,-0.00000186,0.00000301,0.00000337,-0.00001380,-0.00000280,0.00000
 424,-0.00000709,-0.00000324,0.00000492,0.00000504,-0.00000537,-0.00001
 126,0.00000546,0.00000420,0.00001024,-0.00000792,0.00000385,-0.0000046
 3,0.00000346,-0.00000145,-0.00000468,0.00000375,0.00000150,0.00000443,
 0.00000669,0.00000083,0.00000488,-0.00000302,0.00000639,-0.00000587,-0
 .00000289,-0.00000420,-0.00000064,-0.00000355,-0.00000232,0.00000197,0
 .00000043,-0.00000015,-0.00000111,-0.00000018,0.00000143,0.00000023,0.
 00000164,0.00000145,0.00000139,-0.00000071,-0.00000034,0.00000044,-0.0
 0000009,-0.00000037,0.00000162,0.00000081,-0.00000827,0.00000453,-0.00
 000368,0.00000109,-0.00000148,-0.00000272,0.00000454,-0.00000125,0.000
 00049,-0.00000217,0.00000037,-0.00000056,0.00000077,0.00000139,-0.0000
 0096,0.00000009,-0.00000125,0.00000037,0.00000128,-0.00000032,-0.00000
 033,-0.00000040,-0.00000163,-0.00000020,-0.00000124,0.00000082,0.00000
 151,0.00000012,-0.00000095,0.00000052,-0.00000122,-0.00000009,-0.00000
 045,0.00000075,-0.00000127,0.00000158,-0.00000189,-0.00000057,0.000001
 41,0.00000028,0.00000036,-0.00000236,-0.00000052,-0.00000265,-0.000002
 96,0.00000100,0.00000267,0.00131808,0.00266188,0.00012038,0.00092796,-
 0.00323485,0.00011680,-0.00078519,-0.00065018,0.00001462,-0.01196224,-
 0.00107302,0.00038580,-0.01453622,0.00273540,0.00042454,-0.00085750,0.
 00076672,0.00003033,0.00024372,0.00006421,-0.00002072,-0.00009603,0.00
 025899,0.00002273,0.00070136,-0.00204546,-0.00013635,0.00071714,0.0021
 0317,-0.00008505,-0.00014236,-0.00028874,-0.00000558,0.00021973,-0.000
 06898,0.00000039,0.00001501,0.00033933,0.00000650,0.00005107,0.0000371
 0,-0.00000114,0.00060182,0.00080322,-0.00000491,0.00003025,-0.00032356
 ,-0.00001369,0.00060379,-0.00089706,-0.00001181,0.00005396,-0.00004460
 ,0.00000102,-0.00000876,0.00006696,0.00000919,-0.00001439,-0.00006684,
 0.00000433,0.00036756,-0.00006054,-0.00002541,-0.33173641,0.01346138,0
 .00733853,0.35434218,-0.00000052,-0.00000349,0.00000418,0.00000088,-0.
 00000441,-0.00001179,0.00001413,0.00000123,0.00000909,0.00001046,0.000
 20130,0.00002590,-0.00001101,0.00000208,0.00000739,-0.00000166,-0.0000
 0270,-0.00001194,-0.00000133,0.00000279,-0.00000052,0.00000016,0.00000
 025,-0.00000066,0.00000036,0.00000046,0.00000067,0.00000002,-0.0000004
 9,-0.00000026,-0.00000015,0.00000007,0.00000033,0.00000128,0.00000051,
 -0.00000106,0.00000161,-0.00000243,-0.00000180,0.00000327,0.00000071,-
 0.00001023,-0.00000429,0.00000059,-0.00001109,-0.00000120,-0.00000264,
 -0.00000126,-0.00000028,-0.00000042,0.00000080,-0.00000009,-0.00000056
 ,0.00000035,-0.00000036,-0.00000006,-0.00000011,0.00000010,-0.00000045
 ,0.00000035,0.00000016,0.00000020,0.00000001,0.00000013,0.00000014,-0.
 00000023,-0.00000003,0.,0.00000005,-0.00000006,0.,0.,-0.00000002,-0.00
 000013,0.00000003,0.00000006,0.00000012,-0.00000010,0.,0.00000004,-0.0
 0000006,0.00000004,0.00000037,-0.00000018,0.00000017,-0.00000013,-0.00
 000007,0.00000010,-0.00000025,0.00000006,0.00000001,0.00000018,-0.0000
 0001,0.00000004,-0.00000002,-0.00000002,0.00000002,0.00000001,0.,-0.00
 000007,-0.00000005,0.,0.00000003,0.00000003,0.00000008,0.00000001,0.00
 000004,-0.00000002,-0.00000009,0.,0.00000007,0.00000006,0.00000010,0.,
 0.00000003,-0.00000003,0.00000009,-0.00000012,0.00000011,0.00000010,-0
 .00000003,0.,0.,0.00000020,-0.00000003,0.00000017,0.00000007,-0.000000
 10,-0.00000009,0.00073872,-0.00482600,-0.00005337,-0.00130954,-0.00443
 227,-0.00000267,0.00149622,0.00032381,-0.00005464,0.02860530,0.0023193
 9,-0.00067718,-0.02693250,0.00488095,0.00069438,-0.00138029,0.00039599
 ,0.00001569,0.00018345,0.00017472,0.00000133,0.00018589,-0.00043684,-0
 .00003047,0.00196141,0.00128680,-0.00004617,-0.00190557,0.00127376,0.0
 0004689,-0.00021619,-0.00038978,-0.00001912,-0.00018766,0.00019972,0.0
 0000928,-0.00048087,0.00019243,0.00001684,-0.00007235,-0.00002125,0.00
 000348,-0.00092386,-0.00036709,0.00003487,0.00049721,0.00017681,-0.000
 00621,0.00083137,-0.00037005,-0.00001080,0.00006500,-0.00002400,0.,-0.
 00001322,-0.00001002,0.00000023,0.00001365,-0.00000472,-0.00000017,-0.
 00006256,-0.00089302,-0.00001029,0.01345360,-0.06002969,-0.00032234,-0
 .01455934,0.06038736,-0.00000104,-0.00000450,-0.00002497,0.00002978,0.
 00003319,-0.00002459,0.00016280,0.00001067,0.00006155,-0.00002934,0.00
 002527,-0.00121753,-0.00015636,0.00002641,0.00006841,-0.00002751,0.000
 03685,-0.00002323,-0.00000084,-0.00000254,0.,0.00000325,0.,0.00000081,
 -0.00000213,-0.00000026,-0.00000082,0.00000026,0.00000086,0.00000154,0
 .00000189,-0.00000074,-0.00000116,-0.00000253,0.00000043,0.00000082,0.
 00001595,0.00000273,0.00000096,0.00000460,-0.00001494,0.00000617,-0.00
 000605,-0.00001470,0.00000591,-0.00001513,0.00000410,0.00000201,-0.000
 00060,0.00000030,-0.00000007,0.00000042,0.00000013,-0.00000029,-0.0000
 0007,-0.00000069,-0.00000022,-0.00000029,-0.00000041,0.00000039,-0.000
 00004,0.00000054,-0.00000009,-0.00000008,0.00000020,0.00000014,-0.0000
 0025,0.00000004,0.00000012,-0.00000004,0.00000018,0.00000002,0.0000001
 3,-0.00000001,-0.00000028,-0.00000011,-0.00000003,-0.00000022,0.000000
 35,0.,-0.00000030,0.00000040,0.00000004,0.00000012,0.00000021,0.000000
 21,0.00000013,0.00000019,0.,-0.00000035,0.00000009,0.00000005,-0.00000
 021,0.00000026,0.00000016,0.00000005,0.00000016,0.00000003,-0.00000023
 ,-0.00000012,0.,0.00000018,-0.00000034,-0.00000013,-0.00000008,0.00000
 021,0.00000018,0.00000003,0.00000007,-0.00000029,0.00000016,0.,-0.0000
 0015,0.00000009,-0.00000028,0.00000012,0.,-0.00000018,-0.00000008,-0.0
 0000003,-0.00000011,-0.00000010,0.00000036,-0.00000053,-0.00000017,-0.
 00000004,0.00000068,-0.00000026,-0.00000023,0.00002418,-0.00013785,0.0
 0602858,0.00021279,-0.00000299,0.00602412,0.00002741,0.00000705,0.0001
 2566,0.00058915,-0.00009208,0.00314466,0.00020280,-0.00016866,0.003150
 87,0.00001827,-0.00002723,0.00012563,-0.00001925,-0.00000692,-0.000188
 77,-0.00001916,-0.00001862,0.00028048,-0.00013705,0.00007120,-0.003802
 48,-0.00008316,-0.00003370,-0.00380551,0.00003735,-0.00000781,0.000279
 86,-0.00000245,-0.00000422,-0.00018973,-0.00000718,-0.00001120,-0.0001
 3594,-0.00000192,-0.00000190,0.00004705,0.00000535,-0.00002306,0.00024
 018,-0.00000053,0.00000496,-0.00013573,-0.00002232,0.00002341,0.000241
 31,0.00000155,-0.00000007,0.00004693,0.00001086,-0.00000757,0.00026264
 ,0.00000210,-0.00000383,0.00026291,-0.00002093,0.00007724,-0.00063332,
 0.00734804,-0.00015107,-0.03383728,-0.00814363,0.00041222,0.02361284\\
 0.00000209,0.00000193,0.00000060,0.00000022,-0.00000129,0.00000035,0.0
 0000072,-0.00000061,-0.00000086,0.00000076,0.00000017,0.00000055,0.000
 00042,-0.00000043,0.00000055,-0.00000065,0.00000013,-0.00000011,-0.000
 00220,-0.00000213,-0.00000021,-0.00000077,0.00000136,0.00000029,0.0000
 0101,-0.00000081,0.00000037,0.00051313,-0.00476707,0.00696744,-0.00041
 783,0.00680353,-0.00243395,-0.00000001,0.00000017,-0.00000033,0.,-0.00
 000022,-0.00000030,-0.00000025,-0.00000022,-0.00000017,-0.00000016,0.,
 0.00000020,-0.00000062,-0.00000034,-0.00000025,0.00000029,-0.00000005,
 -0.00000038,0.00000097,0.00000071,-0.00000018,-0.00484496,-0.00732217,
 -0.00936896,0.00505398,0.00112442,0.00622207,-0.00337553,0.00094160,-0
 .00122890,-0.00000016,0.00000063,0.00000046,-0.00000047,-0.00000024,-0
 .00000054,0.00000072,0.00000127,-0.00000185,-0.00000016,0.00000011,-0.
 00000080,-0.00000048,-0.00000054,0.00000072,0.00000005,-0.00000011,-0.
 00000012,0.00919370,0.00438536,-0.00397425,0.00000012,-0.00000366,0.00
 000076,-0.00612298,-0.00116251,0.00381543,-0.00000073,0.00000019,-0.00
 000130,0.00000126,-0.00000207,0.00000187,0.00000022,0.00000148,-0.0000
 0048,0.00000007,0.00000021,-0.00000017,-0.00000008,0.00000031,-0.00000
 031,-0.00000007,0.00000008,-0.00000027,-0.00000022,0.00000017,0.000000
 19,-0.00000009,0.00000004,-0.00000029,-0.00000011,0.00000046,0.0000003
 3,0.00000017,0.00000019,0.00000001,0.00000065,-0.00000015,-0.00000012,
 -0.00000039,0.00000035,0.00000047,-0.00000024,0.00000013,-0.00000051,-
 0.00000048,-0.00000039,0.00000011,-0.00000063,0.00000046,-0.00000001,0
 .00000018,-0.00000012,0.00000027,-0.00000063,0.00000024,0.00000009,-0.
 00000101,-0.00000026,0.00000033,0.00000039,0.00000107,0.00000042,-0.00
 000019,-0.00000024,0.00000020,0.00000048,0.00000020,0.00000028,0.00000
 020,0.00000007,0.00000024,0.00000020,-0.00000005,0.00000009,-0.0000000
 7,0.00000002,0.,-0.00000020,0.00000025,0.,0.00000007,0.00000016,0.0000
 0031,0.,-0.00000005,0.00000034,0.00000019,-0.00000012,0.00000023,-0.00
 000016,-0.00000043,-0.00000016,0.00000019,0.,0.00000009,-0.00000010,0.
 00000002,-0.00000019,0.00000010,-0.00000003,0.00000028,0.,-0.00000006,
 0.00000004,-0.00000074,-0.00000099,-0.00000028,0.00000051,0.00000001,0
 .00000007,0.00000031,-0.00000011,0.00000020\\\@
 The archive entry for this job was punched.


 ROSE IS A RED
 TY COBB IS BLUE
 'CAUSE PETE JUST HIT
 NO. 4592.
 Job cpu time:       0 days 20 hours  7 minutes 47.3 seconds.
 Elapsed time:       0 days  0 hours 50 minutes 24.1 seconds.
 File lengths (MBytes):  RWF=   6471 Int=      0 D2E=      0 Chk=     61 Scr=      2
 Normal termination of Gaussian 16 at Fri Aug 15 22:19:31 2025.
