 Entering Gaussian System, Link 0=g16
 Input=molecule.gjf
 Output=molecule.log
 Initial command:
 /share/apps/softwares/gaussian/16/g16/l1.exe "/share/home/kae/gaussian/corrtectedOI/ttmalt_250613_hse/Gau-26504.inp" -scrdir="/share/home/kae/gaussian/corrtectedOI/ttmalt_250613_hse/"
 Entering Link 1 = /share/apps/softwares/gaussian/16/g16/l1.exe PID=     26505.
  
 Copyright (c) 1988-2019, Gaussian, Inc.  All Rights Reserved.
  
 This is part of the Gaussian(R) 16 program.  It is based on
 the Gaussian(R) 09 system (copyright 2009, Gaussian, Inc.),
 the Gaussian(R) 03 system (copyright 2003, Gaussian, Inc.),
 the Gaussian(R) 98 system (copyright 1998, Gaussian, Inc.),
 the Gaussian(R) 94 system (copyright 1995, Gaussian, Inc.),
 the Gaussian 92(TM) system (copyright 1992, Gaussian, Inc.),
 the Gaussian 90(TM) system (copyright 1990, Gaussian, Inc.),
 the Gaussian 88(TM) system (copyright 1988, Gaussian, Inc.),
 the Gaussian 86(TM) system (copyright 1986, Carnegie Mellon
 University), and the Gaussian 82(TM) system (copyright 1983,
 Carnegie Mellon University). Gaussian is a federally registered
 trademark of Gaussian, Inc.
  
 This software contains proprietary and confidential information,
 including trade secrets, belonging to Gaussian, Inc.
  
 This software is provided under written license and may be
 used, copied, transmitted, or stored only in accord with that
 written license.
  
 The following legend is applicable only to US Government
 contracts under FAR:
  
                    RESTRICTED RIGHTS LEGEND
  
 Use, reproduction and disclosure by the US Government is
 subject to restrictions as set forth in subparagraphs (a)
 and (c) of the Commercial Computer Software - Restricted
 Rights clause in FAR 52.227-19.
  
 Gaussian, Inc.
 340 Quinnipiac St., Bldg. 40, Wallingford CT 06492
  
  
 ---------------------------------------------------------------
 Warning -- This program may not be used in any manner that
 competes with the business of Gaussian, Inc. or will provide
 assistance to any competitor of Gaussian, Inc.  The licensee
 of this program is prohibited from giving any competitor of
 Gaussian, Inc. access to this program.  By using this program,
 the user acknowledges that Gaussian, Inc. is engaged in the
 business of creating and licensing software in the field of
 computational chemistry and represents and warrants to the
 licensee that it is not a competitor of Gaussian, Inc. and that
 it will not use this program in any manner prohibited above.
 ---------------------------------------------------------------
  

 Cite this work as:
 Gaussian 16, Revision C.01,
 M. J. Frisch, G. W. Trucks, H. B. Schlegel, G. E. Scuseria, 
 M. A. Robb, J. R. Cheeseman, G. Scalmani, V. Barone, 
 G. A. Petersson, H. Nakatsuji, X. Li, M. Caricato, A. V. Marenich, 
 J. Bloino, B. G. Janesko, R. Gomperts, B. Mennucci, H. P. Hratchian, 
 J. V. Ortiz, A. F. Izmaylov, J. L. Sonnenberg, D. Williams-Young, 
 F. Ding, F. Lipparini, F. Egidi, J. Goings, B. Peng, A. Petrone, 
 T. Henderson, D. Ranasinghe, V. G. Zakrzewski, J. Gao, N. Rega, 
 G. Zheng, W. Liang, M. Hada, M. Ehara, K. Toyota, R. Fukuda, 
 J. Hasegawa, M. Ishida, T. Nakajima, Y. Honda, O. Kitao, H. Nakai, 
 T. Vreven, K. Throssell, J. A. Montgomery, Jr., J. E. Peralta, 
 F. Ogliaro, M. J. Bearpark, J. J. Heyd, E. N. Brothers, K. N. Kudin, 
 V. N. Staroverov, T. A. Keith, R. Kobayashi, J. Normand, 
 K. Raghavachari, A. P. Rendell, J. C. Burant, S. S. Iyengar, 
 J. Tomasi, M. Cossi, J. M. Millam, M. Klene, C. Adamo, R. Cammi, 
 J. W. Ochterski, R. L. Martin, K. Morokuma, O. Farkas, 
 J. B. Foresman, and D. J. Fox, Gaussian, Inc., Wallingford CT, 2019.
 
 ******************************************
 Gaussian 16:  ES64L-G16RevC.01  3-Jul-2019
                13-Jun-2025 
 ******************************************
 %mem=56GB
 %nprocshared=24
 Will use up to   24 processors via shared memory.
 %chk=molecule.chk
 ----------------------------------
 #p stable=opt Uhseh1pbe/6-311(d,p)
 ----------------------------------
 1/38=1,172=1/1;
 2/12=2,17=6,18=5,40=1/2;
 3/5=4,6=6,7=101,11=2,25=1,30=1,74=-51,116=2/1,2,3;
 4//1;
 5/5=2,38=5/2;
 6/7=2,8=2,9=2,10=2,28=1/1;
 8/6=1,10=90,11=11/1;
 9/8=-3,42=1,46=1/14;
 5/5=2,8=3,17=40,38=5/8(-2);
 6/7=2,8=2,9=2,10=2,28=1/1;
 99/5=1,9=1/99;
 Leave Link    1 at Fri Jun 13 17:20:57 2025, MaxMem=  7516192768 cpu:               1.1 elap:               0.1
 (Enter /share/apps/softwares/gaussian/16/g16/l101.exe)
 --------
 molecule
 --------
 Symbolic Z-matrix:
 Charge =  0 Multiplicity = 2
 C                    -2.56038   0.00005   0.00004 
 C                    -3.28115   1.08451  -0.52446 
 C                    -4.67191   1.08348  -0.52367 
 C                    -5.39097   0.00003   0.00001 
 C                    -4.67191  -1.08341   0.52371 
 C                    -3.28114  -1.08442   0.52452 
 C                    -1.08298   0.00006   0.00005 
 C                    -0.36159   0.58984  -1.04643 
 C                     1.02452   0.58578  -1.03939 
 C                     1.78856   0.00005   0.00005 
 C                     1.02451  -0.58568   1.03948 
 C                    -0.36159  -0.58973   1.04653 
 H                    -2.74723   1.94607  -0.9123 
 H                    -5.21484   1.93247  -0.92645 
 H                    -5.21482  -1.93241   0.92648 
 H                    -2.74722  -1.94597   0.91237 
 H                    -0.88067   1.0131   -1.89704 
 H                    -0.88067  -1.01299   1.89714 
 C                     3.25041  -0.00002   0.00003 
 C                     3.98509   1.23276  -0.29824 
 C                     5.05403   1.27475  -1.22531 
 C                     3.67665   2.46709   0.32307 
 C                     5.76175   2.43511  -1.51438 
 C                     4.36261   3.64442   0.0508 
 C                     5.40491   3.61493  -0.86986 
 H                     6.56047   2.41987  -2.24388 
 C                     3.98509  -1.23279   0.29823 
 C                     3.67647  -2.46717  -0.32289 
 C                     5.05422  -1.27474   1.2251 
 C                     4.36245  -3.6445   -0.05065 
 C                     5.76196  -2.4351    1.51411 
 C                     5.40495  -3.61496   0.86978 
 H                     4.10013  -4.56002  -0.56384 
 H                     6.56083  -2.41982   2.24344 
 Cl                    6.28163   5.08632  -1.22293 
 Cl                    5.48939  -0.1462   -2.15267 
 Cl                    6.2817   -5.08634   1.2228 
 Cl                    2.44799  -2.55985  -1.56809 
 Cl                    5.48981   0.14626   2.15229 
 Cl                    1.81245  -1.24832   2.46114 
 Cl                    1.81244   1.24837  -2.46108 
 C                    -7.58198  -0.87656  -0.85765 
 C                    -7.58202   0.87657   0.85763 
 C                    -6.91876  -1.76098  -1.76643 
 C                    -9.02608  -0.87657  -0.84788 
 C                    -9.02612   0.87655   0.84782 
 C                    -6.91884   1.76101   1.76642 
 C                    -7.62812  -2.59987  -2.58426 
 H                    -5.83607  -1.75461  -1.80427 
 C                    -9.72648  -1.77015  -1.7151 
 C                    -9.72655   1.77011   1.71503 
 H                    -5.83615   1.75466   1.80429 
 C                    -7.62823   2.59988   2.58424 
 C                    -9.05136  -2.61135  -2.55658 
 H                    -7.10233  -3.26082  -3.26641 
 H                    -10.81259  -1.76256  -1.69177 
 C                    -9.05147   2.61133   2.55653 
 H                    -10.81266   1.7625    1.69168 
 H                    -7.10248   3.26084   3.2664 
 H                    -9.59564  -3.28497  -3.21105 
 H                    -9.59579   3.28494   3.21099 
 C                    -6.88022   0.00001  0. 
 C                    -9.70735  -0.00002  -0.00003 
 H                    -10.7944  -0.00003  -0.00005 
 Cl                    2.44847   2.55966   1.56858 
 H                     4.10045   4.55991   0.56414 
 
 ITRead=  0  0  0  0  0  0  0  0  0  0  0  0  0  0  0  0  0  0  0  0
 ITRead=  0  0  0  0  0  0  0  0  0  0  0  0  0  0  0  0  0  0  0  0
 ITRead=  0  0  0  0  0  0  0  0  0  0  0  0  0  0  0  0  0  0  0  0
 ITRead=  0  0  0  0  0  0
 MicOpt= -1 -1 -1 -1 -1 -1 -1 -1 -1 -1 -1 -1 -1 -1 -1 -1 -1 -1 -1 -1
 MicOpt= -1 -1 -1 -1 -1 -1 -1 -1 -1 -1 -1 -1 -1 -1 -1 -1 -1 -1 -1 -1
 MicOpt= -1 -1 -1 -1 -1 -1 -1 -1 -1 -1 -1 -1 -1 -1 -1 -1 -1 -1 -1 -1
 MicOpt= -1 -1 -1 -1 -1 -1
 NAtoms=     66 NQM=       66 NQMF=       0 NMMI=      0 NMMIF=      0
                NMic=       0 NMicF=      0.
                    Isotopes and Nuclear Properties:
 (Nuclear quadrupole moments (NQMom) in fm**2, nuclear magnetic moments (NMagM)
  in nuclear magnetons)

  Atom         1           2           3           4           5           6           7           8           9          10
 IAtWgt=          12          12          12          12          12          12          12          12          12          12
 AtmWgt=  12.0000000  12.0000000  12.0000000  12.0000000  12.0000000  12.0000000  12.0000000  12.0000000  12.0000000  12.0000000
 NucSpn=           0           0           0           0           0           0           0           0           0           0
 AtZEff=  -0.0000000  -0.0000000  -0.0000000  -0.0000000  -0.0000000  -0.0000000  -0.0000000  -0.0000000  -0.0000000  -0.0000000
 NQMom=    0.0000000   0.0000000   0.0000000   0.0000000   0.0000000   0.0000000   0.0000000   0.0000000   0.0000000   0.0000000
 NMagM=    0.0000000   0.0000000   0.0000000   0.0000000   0.0000000   0.0000000   0.0000000   0.0000000   0.0000000   0.0000000
 AtZNuc=   6.0000000   6.0000000   6.0000000   6.0000000   6.0000000   6.0000000   6.0000000   6.0000000   6.0000000   6.0000000

  Atom        11          12          13          14          15          16          17          18          19          20
 IAtWgt=          12          12           1           1           1           1           1           1          12          12
 AtmWgt=  12.0000000  12.0000000   1.0078250   1.0078250   1.0078250   1.0078250   1.0078250   1.0078250  12.0000000  12.0000000
 NucSpn=           0           0           1           1           1           1           1           1           0           0
 AtZEff=  -0.0000000  -0.0000000  -0.0000000  -0.0000000  -0.0000000  -0.0000000  -0.0000000  -0.0000000  -0.0000000  -0.0000000
 NQMom=    0.0000000   0.0000000   0.0000000   0.0000000   0.0000000   0.0000000   0.0000000   0.0000000   0.0000000   0.0000000
 NMagM=    0.0000000   0.0000000   2.7928460   2.7928460   2.7928460   2.7928460   2.7928460   2.7928460   0.0000000   0.0000000
 AtZNuc=   6.0000000   6.0000000   1.0000000   1.0000000   1.0000000   1.0000000   1.0000000   1.0000000   6.0000000   6.0000000

  Atom        21          22          23          24          25          26          27          28          29          30
 IAtWgt=          12          12          12          12          12           1          12          12          12          12
 AtmWgt=  12.0000000  12.0000000  12.0000000  12.0000000  12.0000000   1.0078250  12.0000000  12.0000000  12.0000000  12.0000000
 NucSpn=           0           0           0           0           0           1           0           0           0           0
 AtZEff=  -0.0000000  -0.0000000  -0.0000000  -0.0000000  -0.0000000  -0.0000000  -0.0000000  -0.0000000  -0.0000000  -0.0000000
 NQMom=    0.0000000   0.0000000   0.0000000   0.0000000   0.0000000   0.0000000   0.0000000   0.0000000   0.0000000   0.0000000
 NMagM=    0.0000000   0.0000000   0.0000000   0.0000000   0.0000000   2.7928460   0.0000000   0.0000000   0.0000000   0.0000000
 AtZNuc=   6.0000000   6.0000000   6.0000000   6.0000000   6.0000000   1.0000000   6.0000000   6.0000000   6.0000000   6.0000000

  Atom        31          32          33          34          35          36          37          38          39          40
 IAtWgt=          12          12           1           1          35          35          35          35          35          35
 AtmWgt=  12.0000000  12.0000000   1.0078250   1.0078250  34.9688527  34.9688527  34.9688527  34.9688527  34.9688527  34.9688527
 NucSpn=           0           0           1           1           3           3           3           3           3           3
 AtZEff=  -0.0000000  -0.0000000  -0.0000000  -0.0000000  -0.0000000  -0.0000000  -0.0000000  -0.0000000  -0.0000000  -0.0000000
 NQMom=    0.0000000   0.0000000   0.0000000   0.0000000  -8.1650000  -8.1650000  -8.1650000  -8.1650000  -8.1650000  -8.1650000
 NMagM=    0.0000000   0.0000000   2.7928460   2.7928460   0.8218740   0.8218740   0.8218740   0.8218740   0.8218740   0.8218740
 AtZNuc=   6.0000000   6.0000000   1.0000000   1.0000000  17.0000000  17.0000000  17.0000000  17.0000000  17.0000000  17.0000000

  Atom        41          42          43          44          45          46          47          48          49          50
 IAtWgt=          35          12          12          12          12          12          12          12           1          12
 AtmWgt=  34.9688527  12.0000000  12.0000000  12.0000000  12.0000000  12.0000000  12.0000000  12.0000000   1.0078250  12.0000000
 NucSpn=           3           0           0           0           0           0           0           0           1           0
 AtZEff=  -0.0000000  -0.0000000  -0.0000000  -0.0000000  -0.0000000  -0.0000000  -0.0000000  -0.0000000  -0.0000000  -0.0000000
 NQMom=   -8.1650000   0.0000000   0.0000000   0.0000000   0.0000000   0.0000000   0.0000000   0.0000000   0.0000000   0.0000000
 NMagM=    0.8218740   0.0000000   0.0000000   0.0000000   0.0000000   0.0000000   0.0000000   0.0000000   2.7928460   0.0000000
 AtZNuc=  17.0000000   6.0000000   6.0000000   6.0000000   6.0000000   6.0000000   6.0000000   6.0000000   1.0000000   6.0000000

  Atom        51          52          53          54          55          56          57          58          59          60
 IAtWgt=          12           1          12          12           1           1          12           1           1           1
 AtmWgt=  12.0000000   1.0078250  12.0000000  12.0000000   1.0078250   1.0078250  12.0000000   1.0078250   1.0078250   1.0078250
 NucSpn=           0           1           0           0           1           1           0           1           1           1
 AtZEff=  -0.0000000  -0.0000000  -0.0000000  -0.0000000  -0.0000000  -0.0000000  -0.0000000  -0.0000000  -0.0000000  -0.0000000
 NQMom=    0.0000000   0.0000000   0.0000000   0.0000000   0.0000000   0.0000000   0.0000000   0.0000000   0.0000000   0.0000000
 NMagM=    0.0000000   2.7928460   0.0000000   0.0000000   2.7928460   2.7928460   0.0000000   2.7928460   2.7928460   2.7928460
 AtZNuc=   6.0000000   1.0000000   6.0000000   6.0000000   1.0000000   1.0000000   6.0000000   1.0000000   1.0000000   1.0000000

  Atom        61          62          63          64          65          66
 IAtWgt=           1          12          12           1          35           1
 AtmWgt=   1.0078250  12.0000000  12.0000000   1.0078250  34.9688527   1.0078250
 NucSpn=           1           0           0           1           3           1
 AtZEff=  -0.0000000  -0.0000000  -0.0000000  -0.0000000  -0.0000000  -0.0000000
 NQMom=    0.0000000   0.0000000   0.0000000   0.0000000  -8.1650000   0.0000000
 NMagM=    2.7928460   0.0000000   0.0000000   2.7928460   0.8218740   2.7928460
 AtZNuc=   1.0000000   6.0000000   6.0000000   1.0000000  17.0000000   1.0000000
 Leave Link  101 at Fri Jun 13 17:20:57 2025, MaxMem=  7516192768 cpu:               3.9 elap:               0.3
 (Enter /share/apps/softwares/gaussian/16/g16/l202.exe)
 Stoichiometry    C39H19Cl8(2)
 Framework group  C1[X(C39H19Cl8)]
 Deg. of freedom   192
 Full point group                 C1      NOp   1
 Largest Abelian subgroup         C1      NOp   1
 Largest concise Abelian subgroup C1      NOp   1
                         Standard orientation:                         
 ---------------------------------------------------------------------
 Center     Atomic      Atomic             Coordinates (Angstroms)
 Number     Number       Type             X           Y           Z
 ---------------------------------------------------------------------
      1          6           0       -2.560382   -0.000050   -0.000040
      2          6           0       -3.281146   -1.084511    0.524456
      3          6           0       -4.671914   -1.083479    0.523672
      4          6           0       -5.390973   -0.000027   -0.000014
      5          6           0       -4.671906    1.083413   -0.523714
      6          6           0       -3.281138    1.084422   -0.524523
      7          6           0       -1.082983   -0.000057   -0.000048
      8          6           0       -0.361588   -0.589841    1.046430
      9          6           0        1.024515   -0.585781    1.039386
     10          6           0        1.788555   -0.000045   -0.000045
     11          6           0        1.024507    0.585676   -1.039481
     12          6           0       -0.361593    0.589727   -1.046530
     13          1           0       -2.747230   -1.946068    0.912298
     14          1           0       -5.214836   -1.932467    0.926452
     15          1           0       -5.214822    1.932410   -0.926484
     16          1           0       -2.747216    1.945972   -0.912374
     17          1           0       -0.880667   -1.013098    1.897041
     18          1           0       -0.880674    1.012988   -1.897137
     19          6           0        3.250407    0.000016   -0.000026
     20          6           0        3.985089   -1.232764    0.298243
     21          6           0        5.054030   -1.274749    1.225311
     22          6           0        3.676649   -2.467090   -0.323072
     23          6           0        5.761746   -2.435113    1.514380
     24          6           0        4.362615   -3.644424   -0.050801
     25          6           0        5.404907   -3.614929    0.869861
     26          1           0        6.560470   -2.419872    2.243877
     27          6           0        3.985085    1.232793   -0.298230
     28          6           0        3.676467    2.467169    0.322890
     29          6           0        5.054217    1.274738   -1.225096
     30          6           0        4.362450    3.644501    0.050653
     31          6           0        5.761959    2.435096   -1.514112
     32          6           0        5.404949    3.614962   -0.869777
     33          1           0        4.100133    4.560022    0.563842
     34          1           0        6.560834    2.419815   -2.243443
     35         17           0        6.281629   -5.086318    1.222932
     36         17           0        5.489391    0.146199    2.152675
     37         17           0        6.281702    5.086343   -1.222796
     38         17           0        2.447992    2.559849    1.568092
     39         17           0        5.489809   -0.146257   -2.152286
     40         17           0        1.812445    1.248324   -2.461140
     41         17           0        1.812439   -1.248365    2.461083
     42          6           0       -7.581984    0.876564    0.857650
     43          6           0       -7.582022   -0.876574   -0.857629
     44          6           0       -6.918760    1.760980    1.766425
     45          6           0       -9.026078    0.876570    0.847875
     46          6           0       -9.026115   -0.876549   -0.847822
     47          6           0       -6.918837   -1.761005   -1.766418
     48          6           0       -7.628116    2.599867    2.584258
     49          1           0       -5.836071    1.754612    1.804272
     50          6           0       -9.726476    1.770145    1.715100
     51          6           0       -9.726552   -1.770108   -1.715031
     52          1           0       -5.836148   -1.754660   -1.804289
     53          6           0       -7.628229   -2.599876   -2.584236
     54          6           0       -9.051360    2.611354    2.556581
     55          1           0       -7.102333    3.260816    3.266411
     56          1           0      -10.812589    1.762559    1.691771
     57          6           0       -9.051473   -2.611331   -2.556528
     58          1           0      -10.812664   -1.762499   -1.691678
     59          1           0       -7.102475   -3.260836   -3.266400
     60          1           0       -9.595644    3.284973    3.211054
     61          1           0       -9.595786   -3.284939   -3.210989
     62          6           0       -6.880216   -0.000012    0.000003
     63          6           0       -9.707346    0.000018    0.000034
     64          1           0      -10.794401    0.000030    0.000046
     65         17           0        2.448472   -2.559660   -1.568579
     66          1           0        4.100448   -4.559909   -0.564138
 ---------------------------------------------------------------------
 Rotational constants (GHZ):           0.0861909           0.0204723           0.0187198
 Leave Link  202 at Fri Jun 13 17:20:57 2025, MaxMem=  7516192768 cpu:               1.0 elap:               0.1
 (Enter /share/apps/softwares/gaussian/16/g16/l301.exe)
 Standard basis: 6-311G(d,p) (5D, 7F)
 Ernie: Thresh=  0.10000D-02 Tol=  0.10000D-05 Strict=F.
 There are  1071 symmetry adapted cartesian basis functions of A   symmetry.
 There are  1024 symmetry adapted basis functions of A   symmetry.
  1024 basis functions,  1792 primitive gaussians,  1071 cartesian basis functions
   195 alpha electrons      194 beta electrons
       nuclear repulsion energy      7137.8219286378 Hartrees.
 IExCor= 3909 DFT=T Ex+Corr=HSEH1PBE ExCW=0 ScaHFX=  0.250000
 ScaDFX=  1.000000  1.000000  1.000000  1.000000 ScalE2=  1.000000  1.000000
 IRadAn=      5 IRanWt=     -1 IRanGd=            0 ICorTp=0 IEmpDi=  4
 HFx  wShort=  0.110000 wLong=  0.000000 cFull=  0.000000 cShort=  1.000000 cLong=  0.000000
 DFx  wShort=  0.110000 wLong=  0.000000 cFull=  0.000000 cShort= -0.250000 cLong=  1.000000
 NAtoms=   66 NActive=   66 NUniq=   66 SFac= 1.00D+00 NAtFMM=   60 NAOKFM=T Big=T
 Integral buffers will be    131072 words long.
 Raffenetti 2 integral format.
 Two-electron integral symmetry is turned on.
 Leave Link  301 at Fri Jun 13 17:20:57 2025, MaxMem=  7516192768 cpu:               1.8 elap:               0.1
 (Enter /share/apps/softwares/gaussian/16/g16/l302.exe)
 NPDir=0 NMtPBC=     1 NCelOv=     1 NCel=       1 NClECP=     1 NCelD=      1
         NCelK=      1 NCelE2=     1 NClLst=     1 CellRange=     0.0.
 One-electron integrals computed using PRISM.
 One-electron integral symmetry used in STVInt
 NBasis=  1024 RedAO= T EigKep=  5.16D-05  NBF=  1024
 NBsUse=  1024 1.00D-06 EigRej= -1.00D+00 NBFU=  1024
 Precomputing XC quadrature grid using
 IXCGrd= 4 IRadAn=           5 IRanWt=          -1 IRanGd=           0 AccXCQ= 0.00D+00.
 Generated NRdTot=       0 NPtTot=           0 NUsed=           0 NTot=          32
 NSgBfM=   956   950   956   956   956 MxSgAt=    66 MxSgA2=    66.
 Leave Link  302 at Fri Jun 13 17:21:00 2025, MaxMem=  7516192768 cpu:              52.4 elap:               2.2
 (Enter /share/apps/softwares/gaussian/16/g16/l303.exe)
 DipDrv:  MaxL=1.
 Leave Link  303 at Fri Jun 13 17:21:00 2025, MaxMem=  7516192768 cpu:               4.7 elap:               0.3
 (Enter /share/apps/softwares/gaussian/16/g16/l401.exe)
 ExpMin= 1.03D-01 ExpMax= 1.06D+05 ExpMxC= 3.62D+03 IAcc=3 IRadAn=         5 AccDes= 0.00D+00
 Harris functional with IExCor= 1009 and IRadAn=       5 diagonalized for initial guess.
 HarFok:  IExCor= 1009 AccDes= 0.00D+00 IRadAn=         5 IDoV= 1 UseB2=F ITyADJ=14
 ICtDFT=  3500011 ScaDFX=  1.000000  1.000000  1.000000  1.000000
 FoFCou: FMM=F IPFlag=           0 FMFlag=      100000 FMFlg1=        2001
         NFxFlg=           0 DoJE=T BraDBF=F KetDBF=T FulRan=T
         wScrn=  0.000000 ICntrl=       500 IOpCl=  0 I1Cent=   200000004 NGrid=           0
         NMat0=    1 NMatS0=      1 NMatT0=    0 NMatD0=    1 NMtDS0=    0 NMtDT0=    0
 Petite list used in FoFCou.
 Harris En= -5176.19677739061    
 JPrj=0 DoOrth=F DoCkMO=F.
 Initial guess <Sx>= 0.0000 <Sy>= 0.0000 <Sz>= 0.5000 <S**2>= 0.7500 S= 0.5000
 Leave Link  401 at Fri Jun 13 17:21:06 2025, MaxMem=  7516192768 cpu:             133.9 elap:               5.6
 (Enter /share/apps/softwares/gaussian/16/g16/l502.exe)
 Integral symmetry usage will be decided dynamically.
 UHF open shell SCF:
 Using DIIS extrapolation, IDIIS=  1040.
 NGot=  7516192768 LenX=  7513861567 LenY=  7512713455
 Requested convergence on RMS density matrix=1.00D-08 within 128 cycles.
 Requested convergence on MAX density matrix=1.00D-06.
 Requested convergence on             energy=1.00D-06.
 No special actions if energy rises.
 Fock matrices will be formed incrementally for  20 cycles.
 Integral accuracy reduced to 1.0D-05 until final iterations.

 Cycle   1  Pass 0  IDiag  1:
 FoFJK:  IHMeth= 1 ICntrl=       0 DoSepK=T KAlg= 0 I1Cent=           0 FoldK=F
 IRaf=         1 NMat=       1 IRICut=       1 DoRegI=T DoRafI=F ISym2E= 0 IDoP0=0 IntGTp=1.
 FoFCou: FMM=T IPFlag=           0 FMFlag=      100000 FMFlg1=        2001
         NFxFlg=           0 DoJE=T BraDBF=F KetDBF=F FulRan=T
         wScrn=  0.000000 ICntrl=       500 IOpCl=  0 I1Cent=           0 NGrid=           0
         NMat0=    1 NMatS0=      1 NMatT0=    0 NMatD0=    1 NMtDS0=    0 NMtDT0=    0
 Symmetry not used in FoFCou.
 FMM levels:  10  Number of levels for PrismC:   9
 E= -5175.87116761566    
 DIIS: error= 3.22D-02 at cycle   1 NSaved=   1.
 NSaved= 1 IEnMin= 1 EnMin= -5175.87116761566     IErMin= 1 ErrMin= 3.22D-02
 ErrMax= 3.22D-02  0.00D+00 EMaxC= 1.00D-01 BMatC= 5.57D+00 BMatP= 5.57D+00
 IDIUse=3 WtCom= 6.78D-01 WtEn= 3.22D-01
 Coeff-Com:  0.100D+01
 Coeff-En:   0.100D+01
 Coeff:      0.100D+01
 Gap=     0.145 Goal=   None    Shift=    0.000
 Gap=     0.195 Goal=   None    Shift=    0.000
 GapD=    0.145 DampG=1.000 DampE=0.500 DampFc=0.5000 IDamp=-1.
 Damping current iteration by 5.00D-01
 RMSDP=2.31D-03 MaxDP=1.17D-01              OVMax= 3.63D-01

 Cycle   2  Pass 0  IDiag  1:
 RMSU=  1.14D-03    CP:  9.78D-01
 E= -5176.27848434569     Delta-E=       -0.407316730027 Rises=F Damp=T
 DIIS: error= 1.09D-02 at cycle   2 NSaved=   2.
 NSaved= 2 IEnMin= 2 EnMin= -5176.27848434569     IErMin= 2 ErrMin= 1.09D-02
 ErrMax= 1.09D-02  0.00D+00 EMaxC= 1.00D-01 BMatC= 6.29D-01 BMatP= 5.57D+00
 IDIUse=3 WtCom= 8.91D-01 WtEn= 1.09D-01
 Coeff-Com:  0.124D-01 0.988D+00
 Coeff-En:   0.203D+00 0.797D+00
 Coeff:      0.332D-01 0.967D+00
 Gap=     0.176 Goal=   None    Shift=    0.000
 Gap=     0.019 Goal=   None    Shift=    0.000
 RMSDP=1.02D-03 MaxDP=9.00D-02 DE=-4.07D-01 OVMax= 2.39D-01

 Cycle   3  Pass 0  IDiag  1:
 RMSU=  7.95D-04    CP:  9.97D-01  4.52D-01
 E= -5176.80814637508     Delta-E=       -0.529662029388 Rises=F Damp=F
 DIIS: error= 1.05D-02 at cycle   3 NSaved=   3.
 NSaved= 3 IEnMin= 3 EnMin= -5176.80814637508     IErMin= 3 ErrMin= 1.05D-02
 ErrMax= 1.05D-02  0.00D+00 EMaxC= 1.00D-01 BMatC= 2.91D-01 BMatP= 6.29D-01
 IDIUse=3 WtCom= 8.95D-01 WtEn= 1.05D-01
 Coeff-Com: -0.107D+00 0.407D+00 0.700D+00
 Coeff-En:   0.000D+00 0.000D+00 0.100D+01
 Coeff:     -0.959D-01 0.364D+00 0.732D+00
 Gap=     0.151 Goal=   None    Shift=    0.000
 Gap=     0.080 Goal=   None    Shift=    0.000
 RMSDP=6.61D-04 MaxDP=6.26D-02 DE=-5.30D-01 OVMax= 1.07D-01

 Cycle   4  Pass 0  IDiag  1:
 RMSU=  3.75D-04    CP:  9.85D-01  7.67D-01  5.00D-01
 E= -5176.83230181529     Delta-E=       -0.024155440216 Rises=F Damp=F
 DIIS: error= 1.30D-02 at cycle   4 NSaved=   4.
 NSaved= 4 IEnMin= 4 EnMin= -5176.83230181529     IErMin= 3 ErrMin= 1.05D-02
 ErrMax= 1.30D-02  0.00D+00 EMaxC= 1.00D-01 BMatC= 2.01D-01 BMatP= 2.91D-01
 IDIUse=3 WtCom= 8.70D-01 WtEn= 1.30D-01
 Coeff-Com: -0.681D-01 0.179D+00 0.513D+00 0.376D+00
 Coeff-En:   0.000D+00 0.000D+00 0.425D+00 0.575D+00
 Coeff:     -0.592D-01 0.156D+00 0.501D+00 0.402D+00
 Gap=     0.113 Goal=   None    Shift=    0.000
 Gap=     0.062 Goal=   None    Shift=    0.000
 RMSDP=3.13D-04 MaxDP=1.61D-02 DE=-2.42D-02 OVMax= 8.09D-02

 Cycle   5  Pass 0  IDiag  1:
 RMSU=  1.78D-04    CP:  9.85D-01  7.24D-01  6.54D-01  4.09D-01
 E= -5176.88389156692     Delta-E=       -0.051589751625 Rises=F Damp=F
 DIIS: error= 4.23D-03 at cycle   5 NSaved=   5.
 NSaved= 5 IEnMin= 5 EnMin= -5176.88389156692     IErMin= 5 ErrMin= 4.23D-03
 ErrMax= 4.23D-03  0.00D+00 EMaxC= 1.00D-01 BMatC= 2.47D-02 BMatP= 2.01D-01
 IDIUse=3 WtCom= 9.58D-01 WtEn= 4.23D-02
 Coeff-Com: -0.304D-01 0.671D-01 0.278D+00 0.287D+00 0.399D+00
 Coeff-En:   0.000D+00 0.000D+00 0.000D+00 0.101D+00 0.899D+00
 Coeff:     -0.291D-01 0.643D-01 0.266D+00 0.279D+00 0.420D+00
 Gap=     0.113 Goal=   None    Shift=    0.000
 Gap=     0.055 Goal=   None    Shift=    0.000
 RMSDP=1.27D-04 MaxDP=1.32D-02 DE=-5.16D-02 OVMax= 3.99D-02

 Cycle   6  Pass 0  IDiag  1:
 RMSU=  5.59D-05    CP:  9.88D-01  6.92D-01  7.03D-01  5.09D-01  4.81D-01
 E= -5176.89043816492     Delta-E=       -0.006546598001 Rises=F Damp=F
 DIIS: error= 1.18D-03 at cycle   6 NSaved=   6.
 NSaved= 6 IEnMin= 6 EnMin= -5176.89043816492     IErMin= 6 ErrMin= 1.18D-03
 ErrMax= 1.18D-03  0.00D+00 EMaxC= 1.00D-01 BMatC= 1.98D-03 BMatP= 2.47D-02
 IDIUse=3 WtCom= 9.88D-01 WtEn= 1.18D-02
 Coeff-Com: -0.909D-02 0.162D-01 0.998D-01 0.120D+00 0.263D+00 0.509D+00
 Coeff-En:   0.000D+00 0.000D+00 0.000D+00 0.000D+00 0.498D-01 0.950D+00
 Coeff:     -0.898D-02 0.160D-01 0.986D-01 0.119D+00 0.261D+00 0.515D+00
 Gap=     0.111 Goal=   None    Shift=    0.000
 Gap=     0.059 Goal=   None    Shift=    0.000
 RMSDP=3.57D-05 MaxDP=4.02D-03 DE=-6.55D-03 OVMax= 1.74D-02

 Cycle   7  Pass 0  IDiag  1:
 RMSU=  2.22D-05    CP:  9.87D-01  6.96D-01  6.97D-01  5.09D-01  5.82D-01
                    CP:  6.41D-01
 E= -5176.89092760062     Delta-E=       -0.000489435699 Rises=F Damp=F
 DIIS: error= 5.74D-04 at cycle   7 NSaved=   7.
 NSaved= 7 IEnMin= 7 EnMin= -5176.89092760062     IErMin= 7 ErrMin= 5.74D-04
 ErrMax= 5.74D-04  0.00D+00 EMaxC= 1.00D-01 BMatC= 4.83D-04 BMatP= 1.98D-03
 IDIUse=3 WtCom= 9.94D-01 WtEn= 5.74D-03
 Coeff-Com: -0.388D-03-0.154D-02 0.151D-01 0.261D-01 0.964D-01 0.363D+00
 Coeff-Com:  0.502D+00
 Coeff-En:   0.000D+00 0.000D+00 0.000D+00 0.000D+00 0.000D+00 0.171D+00
 Coeff-En:   0.829D+00
 Coeff:     -0.385D-03-0.154D-02 0.150D-01 0.259D-01 0.958D-01 0.361D+00
 Coeff:      0.504D+00
 Gap=     0.111 Goal=   None    Shift=    0.000
 Gap=     0.059 Goal=   None    Shift=    0.000
 RMSDP=1.69D-05 MaxDP=1.90D-03 DE=-4.89D-04 OVMax= 6.81D-03

 Cycle   8  Pass 0  IDiag  1:
 RMSU=  1.23D-05    CP:  9.87D-01  6.94D-01  7.02D-01  5.13D-01  5.71D-01
                    CP:  7.72D-01  6.70D-01
 E= -5176.89109790467     Delta-E=       -0.000170304051 Rises=F Damp=F
 DIIS: error= 1.66D-04 at cycle   8 NSaved=   8.
 NSaved= 8 IEnMin= 8 EnMin= -5176.89109790467     IErMin= 8 ErrMin= 1.66D-04
 ErrMax= 1.66D-04  0.00D+00 EMaxC= 1.00D-01 BMatC= 6.51D-05 BMatP= 4.83D-04
 IDIUse=3 WtCom= 9.98D-01 WtEn= 1.66D-03
 Coeff-Com:  0.241D-02-0.531D-02-0.201D-01-0.204D-01-0.257D-01 0.426D-01
 Coeff-Com:  0.266D+00 0.760D+00
 Coeff-En:   0.000D+00 0.000D+00 0.000D+00 0.000D+00 0.000D+00 0.000D+00
 Coeff-En:   0.000D+00 0.100D+01
 Coeff:      0.240D-02-0.530D-02-0.201D-01-0.203D-01-0.256D-01 0.425D-01
 Coeff:      0.266D+00 0.761D+00
 Gap=     0.111 Goal=   None    Shift=    0.000
 Gap=     0.060 Goal=   None    Shift=    0.000
 RMSDP=9.30D-06 MaxDP=8.73D-04 DE=-1.70D-04 OVMax= 2.65D-03

 Initial convergence to 1.0D-05 achieved.  Increase integral accuracy.
 Cycle   9  Pass 1  IDiag  1:
 E= -5176.89095467661     Delta-E=        0.000143228061 Rises=F Damp=F
 DIIS: error= 3.11D-04 at cycle   1 NSaved=   1.
 NSaved= 1 IEnMin= 1 EnMin= -5176.89095467661     IErMin= 1 ErrMin= 3.11D-04
 ErrMax= 3.11D-04  0.00D+00 EMaxC= 1.00D-01 BMatC= 1.77D-04 BMatP= 1.77D-04
 IDIUse=3 WtCom= 9.97D-01 WtEn= 3.11D-03
 Coeff-Com:  0.100D+01
 Coeff-En:   0.100D+01
 Coeff:      0.100D+01
 Gap=     0.111 Goal=   None    Shift=    0.000
 Gap=     0.060 Goal=   None    Shift=    0.000
 RMSDP=9.30D-06 MaxDP=8.73D-04 DE= 1.43D-04 OVMax= 2.24D-03

 Cycle  10  Pass 1  IDiag  1:
 RMSU=  2.39D-04    CP:  9.99D-01
 E= -5176.89099103507     Delta-E=       -0.000036358464 Rises=F Damp=F
 DIIS: error= 2.10D-04 at cycle   2 NSaved=   2.
 NSaved= 2 IEnMin= 2 EnMin= -5176.89099103507     IErMin= 2 ErrMin= 2.10D-04
 ErrMax= 2.10D-04  0.00D+00 EMaxC= 1.00D-01 BMatC= 8.28D-05 BMatP= 1.77D-04
 IDIUse=3 WtCom= 9.98D-01 WtEn= 2.10D-03
 Coeff-Com:  0.356D+00 0.644D+00
 Coeff-En:   0.000D+00 0.100D+01
 Coeff:      0.355D+00 0.645D+00
 Gap=     0.111 Goal=   None    Shift=    0.000
 Gap=     0.061 Goal=   None    Shift=    0.000
 RMSDP=1.12D-05 MaxDP=9.36D-04 DE=-3.64D-05 OVMax= 2.64D-03

 Cycle  11  Pass 1  IDiag  1:
 RMSU=  1.12D-05    CP:  9.99D-01  1.00D+00
 E= -5176.89098755058     Delta-E=        0.000003484494 Rises=F Damp=F
 DIIS: error= 2.43D-04 at cycle   3 NSaved=   3.
 NSaved= 3 IEnMin= 2 EnMin= -5176.89099103507     IErMin= 2 ErrMin= 2.10D-04
 ErrMax= 2.43D-04  0.00D+00 EMaxC= 1.00D-01 BMatC= 1.06D-04 BMatP= 8.28D-05
 IDIUse=3 WtCom= 3.91D-01 WtEn= 6.09D-01
 Coeff-Com:  0.163D-01 0.527D+00 0.456D+00
 Coeff-En:   0.000D+00 0.526D+00 0.474D+00
 Coeff:      0.636D-02 0.526D+00 0.467D+00
 Gap=     0.111 Goal=   None    Shift=    0.000
 Gap=     0.060 Goal=   None    Shift=    0.000
 RMSDP=7.78D-06 MaxDP=9.11D-04 DE= 3.48D-06 OVMax= 2.05D-03

 Cycle  12  Pass 1  IDiag  1:
 RMSU=  3.96D-06    CP:  9.99D-01  1.00D+00  4.02D-01
 E= -5176.89101669119     Delta-E=       -0.000029140614 Rises=F Damp=F
 DIIS: error= 9.64D-05 at cycle   4 NSaved=   4.
 NSaved= 4 IEnMin= 4 EnMin= -5176.89101669119     IErMin= 4 ErrMin= 9.64D-05
 ErrMax= 9.64D-05  0.00D+00 EMaxC= 1.00D-01 BMatC= 1.08D-05 BMatP= 8.28D-05
 IDIUse=1 WtCom= 1.00D+00 WtEn= 0.00D+00
 Coeff-Com: -0.135D-01 0.317D+00 0.320D+00 0.377D+00
 Coeff:     -0.135D-01 0.317D+00 0.320D+00 0.377D+00
 Gap=     0.111 Goal=   None    Shift=    0.000
 Gap=     0.060 Goal=   None    Shift=    0.000
 RMSDP=2.90D-06 MaxDP=4.47D-04 DE=-2.91D-05 OVMax= 6.09D-04

 Cycle  13  Pass 1  IDiag  1:
 RMSU=  1.97D-06    CP:  9.99D-01  1.00D+00  5.02D-01  5.56D-01
 E= -5176.89102027439     Delta-E=       -0.000003583196 Rises=F Damp=F
 DIIS: error= 3.73D-05 at cycle   5 NSaved=   5.
 NSaved= 5 IEnMin= 5 EnMin= -5176.89102027439     IErMin= 5 ErrMin= 3.73D-05
 ErrMax= 3.73D-05  0.00D+00 EMaxC= 1.00D-01 BMatC= 1.40D-06 BMatP= 1.08D-05
 IDIUse=1 WtCom= 1.00D+00 WtEn= 0.00D+00
 Coeff-Com: -0.106D-01-0.135D+00-0.106D+00 0.101D+00 0.115D+01
 Coeff:     -0.106D-01-0.135D+00-0.106D+00 0.101D+00 0.115D+01
 Gap=     0.111 Goal=   None    Shift=    0.000
 Gap=     0.060 Goal=   None    Shift=    0.000
 RMSDP=2.14D-06 MaxDP=2.35D-04 DE=-3.58D-06 OVMax= 7.06D-04

 Cycle  14  Pass 1  IDiag  1:
 RMSU=  1.01D-06    CP:  9.99D-01  1.00D+00  5.10D-01  9.68D-01  1.46D+00
 E= -5176.89102221045     Delta-E=       -0.000001936058 Rises=F Damp=F
 DIIS: error= 3.36D-05 at cycle   6 NSaved=   6.
 NSaved= 6 IEnMin= 6 EnMin= -5176.89102221045     IErMin= 6 ErrMin= 3.36D-05
 ErrMax= 3.36D-05  0.00D+00 EMaxC= 1.00D-01 BMatC= 1.77D-06 BMatP= 1.40D-06
 IDIUse=1 WtCom= 1.00D+00 WtEn= 0.00D+00
 Coeff-Com: -0.315D-03-0.425D+00-0.394D+00-0.208D+00 0.130D+01 0.722D+00
 Coeff:     -0.315D-03-0.425D+00-0.394D+00-0.208D+00 0.130D+01 0.722D+00
 Gap=     0.111 Goal=   None    Shift=    0.000
 Gap=     0.061 Goal=   None    Shift=    0.000
 RMSDP=2.28D-06 MaxDP=1.59D-04 DE=-1.94D-06 OVMax= 8.03D-04

 Cycle  15  Pass 1  IDiag  1:
 RMSU=  6.25D-07    CP:  9.99D-01  1.00D+00  5.42D-01  1.26D+00  2.39D+00
                    CP:  7.88D-01
 E= -5176.89102368604     Delta-E=       -0.000001475591 Rises=F Damp=F
 DIIS: error= 1.17D-05 at cycle   7 NSaved=   7.
 NSaved= 7 IEnMin= 7 EnMin= -5176.89102368604     IErMin= 7 ErrMin= 1.17D-05
 ErrMax= 1.17D-05  0.00D+00 EMaxC= 1.00D-01 BMatC= 1.82D-07 BMatP= 1.40D-06
 IDIUse=1 WtCom= 1.00D+00 WtEn= 0.00D+00
 Coeff-Com:  0.867D-03-0.252D+00-0.234D+00-0.142D+00 0.696D+00 0.452D+00
 Coeff-Com:  0.479D+00
 Coeff:      0.867D-03-0.252D+00-0.234D+00-0.142D+00 0.696D+00 0.452D+00
 Coeff:      0.479D+00
 Gap=     0.111 Goal=   None    Shift=    0.000
 Gap=     0.061 Goal=   None    Shift=    0.000
 RMSDP=4.47D-07 MaxDP=4.39D-05 DE=-1.48D-06 OVMax= 1.25D-04

 Cycle  16  Pass 1  IDiag  1:
 RMSU=  2.38D-07    CP:  9.99D-01  1.00D+00  5.49D-01  1.28D+00  2.53D+00
                    CP:  9.13D-01  7.03D-01
 E= -5176.89102376802     Delta-E=       -0.000000081985 Rises=F Damp=F
 DIIS: error= 4.57D-06 at cycle   8 NSaved=   8.
 NSaved= 8 IEnMin= 8 EnMin= -5176.89102376802     IErMin= 8 ErrMin= 4.57D-06
 ErrMax= 4.57D-06  0.00D+00 EMaxC= 1.00D-01 BMatC= 1.52D-08 BMatP= 1.82D-07
 IDIUse=1 WtCom= 1.00D+00 WtEn= 0.00D+00
 Coeff-Com:  0.317D-03-0.395D-04 0.111D-02-0.851D-02-0.220D-01 0.186D-02
 Coeff-Com:  0.153D+00 0.874D+00
 Coeff:      0.317D-03-0.395D-04 0.111D-02-0.851D-02-0.220D-01 0.186D-02
 Coeff:      0.153D+00 0.874D+00
 Gap=     0.111 Goal=   None    Shift=    0.000
 Gap=     0.061 Goal=   None    Shift=    0.000
 RMSDP=1.76D-07 MaxDP=1.52D-05 DE=-8.20D-08 OVMax= 6.63D-05

 Cycle  17  Pass 1  IDiag  1:
 RMSU=  1.15D-07    CP:  9.99D-01  1.00D+00  5.52D-01  1.29D+00  2.57D+00
                    CP:  9.39D-01  8.39D-01  1.08D+00
 E= -5176.89102377812     Delta-E=       -0.000000010097 Rises=F Damp=F
 DIIS: error= 4.24D-06 at cycle   9 NSaved=   9.
 NSaved= 9 IEnMin= 9 EnMin= -5176.89102377812     IErMin= 9 ErrMin= 4.24D-06
 ErrMax= 4.24D-06  0.00D+00 EMaxC= 1.00D-01 BMatC= 1.29D-08 BMatP= 1.52D-08
 IDIUse=1 WtCom= 1.00D+00 WtEn= 0.00D+00
 Coeff-Com: -0.149D-03 0.118D+00 0.111D+00 0.587D-01-0.345D+00-0.213D+00
 Coeff-Com: -0.974D-01 0.717D+00 0.650D+00
 Coeff:     -0.149D-03 0.118D+00 0.111D+00 0.587D-01-0.345D+00-0.213D+00
 Coeff:     -0.974D-01 0.717D+00 0.650D+00
 Gap=     0.111 Goal=   None    Shift=    0.000
 Gap=     0.061 Goal=   None    Shift=    0.000
 RMSDP=1.31D-07 MaxDP=1.30D-05 DE=-1.01D-08 OVMax= 4.57D-05

 Cycle  18  Pass 1  IDiag  1:
 RMSU=  8.46D-08    CP:  9.99D-01  1.00D+00  5.55D-01  1.30D+00  2.60D+00
                    CP:  9.58D-01  9.11D-01  1.33D+00  8.44D-01
 E= -5176.89102378334     Delta-E=       -0.000000005215 Rises=F Damp=F
 DIIS: error= 2.16D-06 at cycle  10 NSaved=  10.
 NSaved=10 IEnMin=10 EnMin= -5176.89102378334     IErMin=10 ErrMin= 2.16D-06
 ErrMax= 2.16D-06  0.00D+00 EMaxC= 1.00D-01 BMatC= 4.38D-09 BMatP= 1.29D-08
 IDIUse=1 WtCom= 1.00D+00 WtEn= 0.00D+00
 Coeff-Com: -0.155D-03 0.882D-01 0.828D-01 0.448D-01-0.253D+00-0.159D+00
 Coeff-Com: -0.962D-01 0.406D+00 0.490D+00 0.397D+00
 Coeff:     -0.155D-03 0.882D-01 0.828D-01 0.448D-01-0.253D+00-0.159D+00
 Coeff:     -0.962D-01 0.406D+00 0.490D+00 0.397D+00
 Gap=     0.111 Goal=   None    Shift=    0.000
 Gap=     0.061 Goal=   None    Shift=    0.000
 RMSDP=4.84D-08 MaxDP=3.27D-06 DE=-5.22D-09 OVMax= 2.74D-05

 Cycle  19  Pass 1  IDiag  1:
 RMSU=  3.23D-08    CP:  9.99D-01  1.00D+00  5.55D-01  1.29D+00  2.61D+00
                    CP:  9.64D-01  9.23D-01  1.38D+00  1.01D+00  7.33D-01
 E= -5176.89102378481     Delta-E=       -0.000000001472 Rises=F Damp=F
 DIIS: error= 6.53D-07 at cycle  11 NSaved=  11.
 NSaved=11 IEnMin=11 EnMin= -5176.89102378481     IErMin=11 ErrMin= 6.53D-07
 ErrMax= 6.53D-07  0.00D+00 EMaxC= 1.00D-01 BMatC= 3.79D-10 BMatP= 4.38D-09
 IDIUse=1 WtCom= 1.00D+00 WtEn= 0.00D+00
 Coeff-Com: -0.619D-04 0.281D-01 0.263D-01 0.145D-01-0.796D-01-0.510D-01
 Coeff-Com: -0.375D-01 0.981D-01 0.155D+00 0.227D+00 0.620D+00
 Coeff:     -0.619D-04 0.281D-01 0.263D-01 0.145D-01-0.796D-01-0.510D-01
 Coeff:     -0.375D-01 0.981D-01 0.155D+00 0.227D+00 0.620D+00
 Gap=     0.111 Goal=   None    Shift=    0.000
 Gap=     0.061 Goal=   None    Shift=    0.000
 RMSDP=1.67D-08 MaxDP=1.32D-06 DE=-1.47D-09 OVMax= 1.11D-05

 Cycle  20  Pass 1  IDiag  1:
 RMSU=  1.40D-08    CP:  9.99D-01  1.00D+00  5.55D-01  1.29D+00  2.61D+00
                    CP:  9.64D-01  9.21D-01  1.40D+00  1.03D+00  8.18D-01
                    CP:  9.82D-01
 E= -5176.89102378503     Delta-E=       -0.000000000224 Rises=F Damp=F
 DIIS: error= 4.19D-07 at cycle  12 NSaved=  12.
 NSaved=12 IEnMin=12 EnMin= -5176.89102378503     IErMin=12 ErrMin= 4.19D-07
 ErrMax= 4.19D-07  0.00D+00 EMaxC= 1.00D-01 BMatC= 1.37D-10 BMatP= 3.79D-10
 IDIUse=1 WtCom= 1.00D+00 WtEn= 0.00D+00
 Coeff-Com:  0.170D-04-0.138D-01-0.130D-01-0.679D-02 0.402D-01 0.249D-01
 Coeff-Com:  0.107D-01-0.817D-01-0.780D-01-0.547D-02 0.347D+00 0.776D+00
 Coeff:      0.170D-04-0.138D-01-0.130D-01-0.679D-02 0.402D-01 0.249D-01
 Coeff:      0.107D-01-0.817D-01-0.780D-01-0.547D-02 0.347D+00 0.776D+00
 Gap=     0.111 Goal=   None    Shift=    0.000
 Gap=     0.061 Goal=   None    Shift=    0.000
 RMSDP=1.47D-08 MaxDP=1.48D-06 DE=-2.24D-10 OVMax= 8.27D-06

 Cycle  21  Pass 1  IDiag  1:
 RMSU=  1.18D-08    CP:  9.99D-01  1.00D+00  5.55D-01  1.30D+00  2.61D+00
                    CP:  9.64D-01  9.25D-01  1.40D+00  1.05D+00  8.69D-01
                    CP:  1.17D+00  1.24D+00
 E= -5176.89102378507     Delta-E=       -0.000000000040 Rises=F Damp=F
 DIIS: error= 2.65D-07 at cycle  13 NSaved=  13.
 NSaved=13 IEnMin=13 EnMin= -5176.89102378507     IErMin=13 ErrMin= 2.65D-07
 ErrMax= 2.65D-07  0.00D+00 EMaxC= 1.00D-01 BMatC= 6.72D-11 BMatP= 1.37D-10
 IDIUse=1 WtCom= 1.00D+00 WtEn= 0.00D+00
 Coeff-Com:  0.517D-04-0.276D-01-0.259D-01-0.139D-01 0.786D-01 0.501D-01
 Coeff-Com:  0.321D-01-0.118D+00-0.153D+00-0.151D+00-0.181D+00 0.546D+00
 Coeff-Com:  0.964D+00
 Coeff:      0.517D-04-0.276D-01-0.259D-01-0.139D-01 0.786D-01 0.501D-01
 Coeff:      0.321D-01-0.118D+00-0.153D+00-0.151D+00-0.181D+00 0.546D+00
 Coeff:      0.964D+00
 Gap=     0.111 Goal=   None    Shift=    0.000
 Gap=     0.061 Goal=   None    Shift=    0.000
 RMSDP=1.72D-08 MaxDP=1.70D-06 DE=-4.00D-11 OVMax= 8.96D-06

 Cycle  22  Pass 1  IDiag  1:
 RMSU=  8.33D-09    CP:  9.99D-01  1.00D+00  5.55D-01  1.29D+00  2.61D+00
                    CP:  9.65D-01  9.23D-01  1.41D+00  1.09D+00  9.17D-01
                    CP:  1.33D+00  2.03D+00  1.49D+00
 E= -5176.89102378525     Delta-E=       -0.000000000178 Rises=F Damp=F
 DIIS: error= 1.12D-07 at cycle  14 NSaved=  14.
 NSaved=14 IEnMin=14 EnMin= -5176.89102378525     IErMin=14 ErrMin= 1.12D-07
 ErrMax= 1.12D-07  0.00D+00 EMaxC= 1.00D-01 BMatC= 2.52D-11 BMatP= 6.72D-11
 IDIUse=1 WtCom= 1.00D+00 WtEn= 0.00D+00
 Coeff-Com:  0.290D-04-0.140D-01-0.131D-01-0.706D-02 0.395D-01 0.254D-01
 Coeff-Com:  0.178D-01-0.541D-01-0.757D-01-0.933D-01-0.217D+00 0.108D+00
 Coeff-Com:  0.624D+00 0.660D+00
 Coeff:      0.290D-04-0.140D-01-0.131D-01-0.706D-02 0.395D-01 0.254D-01
 Coeff:      0.178D-01-0.541D-01-0.757D-01-0.933D-01-0.217D+00 0.108D+00
 Coeff:      0.624D+00 0.660D+00
 Gap=     0.111 Goal=   None    Shift=    0.000
 Gap=     0.061 Goal=   None    Shift=    0.000
 RMSDP=8.35D-09 MaxDP=7.44D-07 DE=-1.78D-10 OVMax= 4.44D-06

 SCF Done:  E(UHSEH1PBE) =  -5176.89102379     A.U. after   22 cycles
            NFock= 22  Conv=0.84D-08     -V/T= 2.0026
 <Sx>= 0.0000 <Sy>= 0.0000 <Sz>= 0.5000 <S**2>= 0.7797 S= 0.5147
 <L.S>=  0.00000000000    
 KE= 5.163412808459D+03 PE=-2.649903369944D+04 EE= 9.020907938561D+03
 Annihilation of the first spin contaminant:
 S**2 before annihilation     0.7797,   after     0.7508
 Leave Link  502 at Fri Jun 13 17:28:37 2025, MaxMem=  7516192768 cpu:           10353.1 elap:             449.7
 (Enter /share/apps/softwares/gaussian/16/g16/l601.exe)
 Copying SCF densities to generalized density rwf, IOpCl= 1 IROHF=0.

 **********************************************************************

            Population analysis using the SCF Density.

 **********************************************************************

 Orbital symmetries:
 Alpha Orbitals:
       Occupied  (A) (A) (A) (A) (A) (A) (A) (A) (A) (A) (A) (A)
                 (A) (A) (A) (A) (A) (A) (A) (A) (A) (A) (A) (A)
                 (A) (A) (A) (A) (A) (A) (A) (A) (A) (A) (A) (A)
                 (A) (A) (A) (A) (A) (A) (A) (A) (A) (A) (A) (A)
                 (A) (A) (A) (A) (A) (A) (A) (A) (A) (A) (A) (A)
                 (A) (A) (A) (A) (A) (A) (A) (A) (A) (A) (A) (A)
                 (A) (A) (A) (A) (A) (A) (A) (A) (A) (A) (A) (A)
                 (A) (A) (A) (A) (A) (A) (A) (A) (A) (A) (A) (A)
                 (A) (A) (A) (A) (A) (A) (A) (A) (A) (A) (A) (A)
                 (A) (A) (A) (A) (A) (A) (A) (A) (A) (A) (A) (A)
                 (A) (A) (A) (A) (A) (A) (A) (A) (A) (A) (A) (A)
                 (A) (A) (A) (A) (A) (A) (A) (A) (A) (A) (A) (A)
                 (A) (A) (A) (A) (A) (A) (A) (A) (A) (A) (A) (A)
                 (A) (A) (A) (A) (A) (A) (A) (A) (A) (A) (A) (A)
                 (A) (A) (A) (A) (A) (A) (A) (A) (A) (A) (A) (A)
                 (A) (A) (A) (A) (A) (A) (A) (A) (A) (A) (A) (A)
                 (A) (A) (A)
       Virtual   (A) (A) (A) (A) (A) (A) (A) (A) (A) (A) (A) (A)
                 (A) (A) (A) (A) (A) (A) (A) (A) (A) (A) (A) (A)
                 (A) (A) (A) (A) (A) (A) (A) (A) (A) (A) (A) (A)
                 (A) (A) (A) (A) (A) (A) (A) (A) (A) (A) (A) (A)
                 (A) (A) (A) (A) (A) (A) (A) (A) (A) (A) (A) (A)
                 (A) (A) (A) (A) (A) (A) (A) (A) (A) (A) (A) (A)
                 (A) (A) (A) (A) (A) (A) (A) (A) (A) (A) (A) (A)
                 (A) (A) (A) (A) (A) (A) (A) (A) (A) (A) (A) (A)
                 (A) (A) (A) (A) (A) (A) (A) (A) (A) (A) (A) (A)
                 (A) (A) (A) (A) (A) (A) (A) (A) (A) (A) (A) (A)
                 (A) (A) (A) (A) (A) (A) (A) (A) (A) (A) (A) (A)
                 (A) (A) (A) (A) (A) (A) (A) (A) (A) (A) (A) (A)
                 (A) (A) (A) (A) (A) (A) (A) (A) (A) (A) (A) (A)
                 (A) (A) (A) (A) (A) (A) (A) (A) (A) (A) (A) (A)
                 (A) (A) (A) (A) (A) (A) (A) (A) (A) (A) (A) (A)
                 (A) (A) (A) (A) (A) (A) (A) (A) (A) (A) (A) (A)
                 (A) (A) (A) (A) (A) (A) (A) (A) (A) (A) (A) (A)
                 (A) (A) (A) (A) (A) (A) (A) (A) (A) (A) (A) (A)
                 (A) (A) (A) (A) (A) (A) (A) (A) (A) (A) (A) (A)
                 (A) (A) (A) (A) (A) (A) (A) (A) (A) (A) (A) (A)
                 (A) (A) (A) (A) (A) (A) (A) (A) (A) (A) (A) (A)
                 (A) (A) (A) (A) (A) (A) (A) (A) (A) (A) (A) (A)
                 (A) (A) (A) (A) (A) (A) (A) (A) (A) (A) (A) (A)
                 (A) (A) (A) (A) (A) (A) (A) (A) (A) (A) (A) (A)
                 (A) (A) (A) (A) (A) (A) (A) (A) (A) (A) (A) (A)
                 (A) (A) (A) (A) (A) (A) (A) (A) (A) (A) (A) (A)
                 (A) (A) (A) (A) (A) (A) (A) (A) (A) (A) (A) (A)
                 (A) (A) (A) (A) (A) (A) (A) (A) (A) (A) (A) (A)
                 (A) (A) (A) (A) (A) (A) (A) (A) (A) (A) (A) (A)
                 (A) (A) (A) (A) (A) (A) (A) (A) (A) (A) (A) (A)
                 (A) (A) (A) (A) (A) (A) (A) (A) (A) (A) (A) (A)
                 (A) (A) (A) (A) (A) (A) (A) (A) (A) (A) (A) (A)
                 (A) (A) (A) (A) (A) (A) (A) (A) (A) (A) (A) (A)
                 (A) (A) (A) (A) (A) (A) (A) (A) (A) (A) (A) (A)
                 (A) (A) (A) (A) (A) (A) (A) (A) (A) (A) (A) (A)
                 (A) (A) (A) (A) (A) (A) (A) (A) (A) (A) (A) (A)
                 (A) (A) (A) (A) (A) (A) (A) (A) (A) (A) (A) (A)
                 (A) (A) (A) (A) (A) (A) (A) (A) (A) (A) (A) (A)
                 (A) (A) (A) (A) (A) (A) (A) (A) (A) (A) (A) (A)
                 (A) (A) (A) (A) (A) (A) (A) (A) (A) (A) (A) (A)
                 (A) (A) (A) (A) (A) (A) (A) (A) (A) (A) (A) (A)
                 (A) (A) (A) (A) (A) (A) (A) (A) (A) (A) (A) (A)
                 (A) (A) (A) (A) (A) (A) (A) (A) (A) (A) (A) (A)
                 (A) (A) (A) (A) (A) (A) (A) (A) (A) (A) (A) (A)
                 (A) (A) (A) (A) (A) (A) (A) (A) (A) (A) (A) (A)
                 (A) (A) (A) (A) (A) (A) (A) (A) (A) (A) (A) (A)
                 (A) (A) (A) (A) (A) (A) (A) (A) (A) (A) (A) (A)
                 (A) (A) (A) (A) (A) (A) (A) (A) (A) (A) (A) (A)
                 (A) (A) (A) (A) (A) (A) (A) (A) (A) (A) (A) (A)
                 (A) (A) (A) (A) (A) (A) (A) (A) (A) (A) (A) (A)
                 (A) (A) (A) (A) (A) (A) (A) (A) (A) (A) (A) (A)
                 (A) (A) (A) (A) (A) (A) (A) (A) (A) (A) (A) (A)
                 (A) (A) (A) (A) (A) (A) (A) (A) (A) (A) (A) (A)
                 (A) (A) (A) (A) (A) (A) (A) (A) (A) (A) (A) (A)
                 (A) (A) (A) (A) (A) (A) (A) (A) (A) (A) (A) (A)
                 (A) (A) (A) (A) (A) (A) (A) (A) (A) (A) (A) (A)
                 (A) (A) (A) (A) (A) (A) (A) (A) (A) (A) (A) (A)
                 (A) (A) (A) (A) (A) (A) (A) (A) (A) (A) (A) (A)
                 (A) (A) (A) (A) (A) (A) (A) (A) (A) (A) (A) (A)
                 (A) (A) (A) (A) (A) (A) (A) (A) (A) (A) (A) (A)
                 (A) (A) (A) (A) (A) (A) (A) (A) (A) (A) (A) (A)
                 (A) (A) (A) (A) (A) (A) (A) (A) (A) (A) (A) (A)
                 (A) (A) (A) (A) (A) (A) (A) (A) (A) (A) (A) (A)
                 (A) (A) (A) (A) (A) (A) (A) (A) (A) (A) (A) (A)
                 (A) (A) (A) (A) (A) (A) (A) (A) (A) (A) (A) (A)
                 (A) (A) (A) (A) (A) (A) (A) (A) (A) (A) (A) (A)
                 (A) (A) (A) (A) (A) (A) (A) (A) (A) (A) (A) (A)
                 (A) (A) (A) (A) (A) (A) (A) (A) (A) (A) (A) (A)
                 (A) (A) (A) (A) (A) (A) (A) (A) (A) (A) (A) (A)
                 (A)
 Beta  Orbitals:
       Occupied  (A) (A) (A) (A) (A) (A) (A) (A) (A) (A) (A) (A)
                 (A) (A) (A) (A) (A) (A) (A) (A) (A) (A) (A) (A)
                 (A) (A) (A) (A) (A) (A) (A) (A) (A) (A) (A) (A)
                 (A) (A) (A) (A) (A) (A) (A) (A) (A) (A) (A) (A)
                 (A) (A) (A) (A) (A) (A) (A) (A) (A) (A) (A) (A)
                 (A) (A) (A) (A) (A) (A) (A) (A) (A) (A) (A) (A)
                 (A) (A) (A) (A) (A) (A) (A) (A) (A) (A) (A) (A)
                 (A) (A) (A) (A) (A) (A) (A) (A) (A) (A) (A) (A)
                 (A) (A) (A) (A) (A) (A) (A) (A) (A) (A) (A) (A)
                 (A) (A) (A) (A) (A) (A) (A) (A) (A) (A) (A) (A)
                 (A) (A) (A) (A) (A) (A) (A) (A) (A) (A) (A) (A)
                 (A) (A) (A) (A) (A) (A) (A) (A) (A) (A) (A) (A)
                 (A) (A) (A) (A) (A) (A) (A) (A) (A) (A) (A) (A)
                 (A) (A) (A) (A) (A) (A) (A) (A) (A) (A) (A) (A)
                 (A) (A) (A) (A) (A) (A) (A) (A) (A) (A) (A) (A)
                 (A) (A) (A) (A) (A) (A) (A) (A) (A) (A) (A) (A)
                 (A) (A)
       Virtual   (A) (A) (A) (A) (A) (A) (A) (A) (A) (A) (A) (A)
                 (A) (A) (A) (A) (A) (A) (A) (A) (A) (A) (A) (A)
                 (A) (A) (A) (A) (A) (A) (A) (A) (A) (A) (A) (A)
                 (A) (A) (A) (A) (A) (A) (A) (A) (A) (A) (A) (A)
                 (A) (A) (A) (A) (A) (A) (A) (A) (A) (A) (A) (A)
                 (A) (A) (A) (A) (A) (A) (A) (A) (A) (A) (A) (A)
                 (A) (A) (A) (A) (A) (A) (A) (A) (A) (A) (A) (A)
                 (A) (A) (A) (A) (A) (A) (A) (A) (A) (A) (A) (A)
                 (A) (A) (A) (A) (A) (A) (A) (A) (A) (A) (A) (A)
                 (A) (A) (A) (A) (A) (A) (A) (A) (A) (A) (A) (A)
                 (A) (A) (A) (A) (A) (A) (A) (A) (A) (A) (A) (A)
                 (A) (A) (A) (A) (A) (A) (A) (A) (A) (A) (A) (A)
                 (A) (A) (A) (A) (A) (A) (A) (A) (A) (A) (A) (A)
                 (A) (A) (A) (A) (A) (A) (A) (A) (A) (A) (A) (A)
                 (A) (A) (A) (A) (A) (A) (A) (A) (A) (A) (A) (A)
                 (A) (A) (A) (A) (A) (A) (A) (A) (A) (A) (A) (A)
                 (A) (A) (A) (A) (A) (A) (A) (A) (A) (A) (A) (A)
                 (A) (A) (A) (A) (A) (A) (A) (A) (A) (A) (A) (A)
                 (A) (A) (A) (A) (A) (A) (A) (A) (A) (A) (A) (A)
                 (A) (A) (A) (A) (A) (A) (A) (A) (A) (A) (A) (A)
                 (A) (A) (A) (A) (A) (A) (A) (A) (A) (A) (A) (A)
                 (A) (A) (A) (A) (A) (A) (A) (A) (A) (A) (A) (A)
                 (A) (A) (A) (A) (A) (A) (A) (A) (A) (A) (A) (A)
                 (A) (A) (A) (A) (A) (A) (A) (A) (A) (A) (A) (A)
                 (A) (A) (A) (A) (A) (A) (A) (A) (A) (A) (A) (A)
                 (A) (A) (A) (A) (A) (A) (A) (A) (A) (A) (A) (A)
                 (A) (A) (A) (A) (A) (A) (A) (A) (A) (A) (A) (A)
                 (A) (A) (A) (A) (A) (A) (A) (A) (A) (A) (A) (A)
                 (A) (A) (A) (A) (A) (A) (A) (A) (A) (A) (A) (A)
                 (A) (A) (A) (A) (A) (A) (A) (A) (A) (A) (A) (A)
                 (A) (A) (A) (A) (A) (A) (A) (A) (A) (A) (A) (A)
                 (A) (A) (A) (A) (A) (A) (A) (A) (A) (A) (A) (A)
                 (A) (A) (A) (A) (A) (A) (A) (A) (A) (A) (A) (A)
                 (A) (A) (A) (A) (A) (A) (A) (A) (A) (A) (A) (A)
                 (A) (A) (A) (A) (A) (A) (A) (A) (A) (A) (A) (A)
                 (A) (A) (A) (A) (A) (A) (A) (A) (A) (A) (A) (A)
                 (A) (A) (A) (A) (A) (A) (A) (A) (A) (A) (A) (A)
                 (A) (A) (A) (A) (A) (A) (A) (A) (A) (A) (A) (A)
                 (A) (A) (A) (A) (A) (A) (A) (A) (A) (A) (A) (A)
                 (A) (A) (A) (A) (A) (A) (A) (A) (A) (A) (A) (A)
                 (A) (A) (A) (A) (A) (A) (A) (A) (A) (A) (A) (A)
                 (A) (A) (A) (A) (A) (A) (A) (A) (A) (A) (A) (A)
                 (A) (A) (A) (A) (A) (A) (A) (A) (A) (A) (A) (A)
                 (A) (A) (A) (A) (A) (A) (A) (A) (A) (A) (A) (A)
                 (A) (A) (A) (A) (A) (A) (A) (A) (A) (A) (A) (A)
                 (A) (A) (A) (A) (A) (A) (A) (A) (A) (A) (A) (A)
                 (A) (A) (A) (A) (A) (A) (A) (A) (A) (A) (A) (A)
                 (A) (A) (A) (A) (A) (A) (A) (A) (A) (A) (A) (A)
                 (A) (A) (A) (A) (A) (A) (A) (A) (A) (A) (A) (A)
                 (A) (A) (A) (A) (A) (A) (A) (A) (A) (A) (A) (A)
                 (A) (A) (A) (A) (A) (A) (A) (A) (A) (A) (A) (A)
                 (A) (A) (A) (A) (A) (A) (A) (A) (A) (A) (A) (A)
                 (A) (A) (A) (A) (A) (A) (A) (A) (A) (A) (A) (A)
                 (A) (A) (A) (A) (A) (A) (A) (A) (A) (A) (A) (A)
                 (A) (A) (A) (A) (A) (A) (A) (A) (A) (A) (A) (A)
                 (A) (A) (A) (A) (A) (A) (A) (A) (A) (A) (A) (A)
                 (A) (A) (A) (A) (A) (A) (A) (A) (A) (A) (A) (A)
                 (A) (A) (A) (A) (A) (A) (A) (A) (A) (A) (A) (A)
                 (A) (A) (A) (A) (A) (A) (A) (A) (A) (A) (A) (A)
                 (A) (A) (A) (A) (A) (A) (A) (A) (A) (A) (A) (A)
                 (A) (A) (A) (A) (A) (A) (A) (A) (A) (A) (A) (A)
                 (A) (A) (A) (A) (A) (A) (A) (A) (A) (A) (A) (A)
                 (A) (A) (A) (A) (A) (A) (A) (A) (A) (A) (A) (A)
                 (A) (A) (A) (A) (A) (A) (A) (A) (A) (A) (A) (A)
                 (A) (A) (A) (A) (A) (A) (A) (A) (A) (A) (A) (A)
                 (A) (A) (A) (A) (A) (A) (A) (A) (A) (A) (A) (A)
                 (A) (A) (A) (A) (A) (A) (A) (A) (A) (A) (A) (A)
                 (A) (A) (A) (A) (A) (A) (A) (A) (A) (A) (A) (A)
                 (A) (A) (A) (A) (A) (A) (A) (A) (A) (A) (A) (A)
                 (A) (A)
 The electronic state is 2-A.
 Alpha  occ. eigenvalues -- -101.74019-101.74019-101.73630-101.73630-101.73594
 Alpha  occ. eigenvalues -- -101.73594-101.73196-101.73196 -10.30778 -10.30777
 Alpha  occ. eigenvalues --  -10.30771 -10.30771 -10.30577 -10.30577 -10.30062
 Alpha  occ. eigenvalues --  -10.30062 -10.27863 -10.26921 -10.26919 -10.26493
 Alpha  occ. eigenvalues --  -10.25602 -10.24892 -10.24892 -10.24890 -10.24890
 Alpha  occ. eigenvalues --  -10.24303 -10.23889 -10.23888 -10.23878 -10.23474
 Alpha  occ. eigenvalues --  -10.23262 -10.23255 -10.23016 -10.23014 -10.22980
 Alpha  occ. eigenvalues --  -10.22980 -10.22732 -10.22730 -10.21998 -10.21919
 Alpha  occ. eigenvalues --  -10.21919 -10.21832 -10.21832 -10.21788 -10.21788
 Alpha  occ. eigenvalues --  -10.21652 -10.21651  -9.54379  -9.54379  -9.54018
 Alpha  occ. eigenvalues --   -9.54017  -9.53981  -9.53980  -9.53587  -9.53587
 Alpha  occ. eigenvalues --   -7.27896  -7.27896  -7.27537  -7.27537  -7.27501
 Alpha  occ. eigenvalues --   -7.27501  -7.27099  -7.27099  -7.26947  -7.26947
 Alpha  occ. eigenvalues --   -7.26891  -7.26891  -7.26576  -7.26576  -7.26539
 Alpha  occ. eigenvalues --   -7.26539  -7.26522  -7.26522  -7.26484  -7.26484
 Alpha  occ. eigenvalues --   -7.26148  -7.26148  -7.26097  -7.26097  -0.95870
 Alpha  occ. eigenvalues --   -0.94454  -0.93578  -0.90820  -0.90644  -0.90202
 Alpha  occ. eigenvalues --   -0.90022  -0.90019  -0.89485  -0.88989  -0.86769
 Alpha  occ. eigenvalues --   -0.85533  -0.84456  -0.83537  -0.83141  -0.82240
 Alpha  occ. eigenvalues --   -0.81196  -0.78738  -0.77432  -0.77017  -0.76621
 Alpha  occ. eigenvalues --   -0.76515  -0.76508  -0.75684  -0.75429  -0.75346
 Alpha  occ. eigenvalues --   -0.71850  -0.69847  -0.66280  -0.65138  -0.64208
 Alpha  occ. eigenvalues --   -0.63691  -0.63447  -0.63102  -0.62856  -0.61812
 Alpha  occ. eigenvalues --   -0.61348  -0.60188  -0.60057  -0.58664  -0.55225
 Alpha  occ. eigenvalues --   -0.55078  -0.54857  -0.53415  -0.53382  -0.53193
 Alpha  occ. eigenvalues --   -0.51870  -0.51512  -0.51234  -0.49532  -0.48731
 Alpha  occ. eigenvalues --   -0.48053  -0.47556  -0.47336  -0.46982  -0.46967
 Alpha  occ. eigenvalues --   -0.46173  -0.46067  -0.45818  -0.45768  -0.45551
 Alpha  occ. eigenvalues --   -0.45523  -0.45031  -0.44226  -0.44028  -0.43542
 Alpha  occ. eigenvalues --   -0.43291  -0.43272  -0.42873  -0.42013  -0.41416
 Alpha  occ. eigenvalues --   -0.41022  -0.40835  -0.40560  -0.40435  -0.39956
 Alpha  occ. eigenvalues --   -0.39445  -0.38957  -0.38776  -0.38490  -0.38488
 Alpha  occ. eigenvalues --   -0.38280  -0.38013  -0.37392  -0.37299  -0.36997
 Alpha  occ. eigenvalues --   -0.36864  -0.35610  -0.35023  -0.34273  -0.34034
 Alpha  occ. eigenvalues --   -0.33625  -0.33575  -0.33572  -0.33345  -0.33134
 Alpha  occ. eigenvalues --   -0.33120  -0.32588  -0.32152  -0.32140  -0.31933
 Alpha  occ. eigenvalues --   -0.31380  -0.30949  -0.30341  -0.29865  -0.27654
 Alpha  occ. eigenvalues --   -0.27134  -0.26591  -0.26415  -0.26193  -0.26016
 Alpha  occ. eigenvalues --   -0.25650  -0.24709  -0.24623  -0.20807  -0.19776
 Alpha virt. eigenvalues --   -0.08670  -0.07575  -0.06843  -0.06265  -0.05435
 Alpha virt. eigenvalues --   -0.04938  -0.04208  -0.03625  -0.03197  -0.02915
 Alpha virt. eigenvalues --   -0.02455  -0.01371  -0.00817  -0.00221   0.01888
 Alpha virt. eigenvalues --    0.02347   0.02582   0.02694   0.02701   0.02961
 Alpha virt. eigenvalues --    0.03842   0.04339   0.04506   0.04895   0.06101
 Alpha virt. eigenvalues --    0.06422   0.06868   0.07377   0.07621   0.08006
 Alpha virt. eigenvalues --    0.08668   0.08715   0.08771   0.09257   0.09300
 Alpha virt. eigenvalues --    0.10108   0.10570   0.11267   0.11611   0.12204
 Alpha virt. eigenvalues --    0.12964   0.13423   0.13733   0.14415   0.14800
 Alpha virt. eigenvalues --    0.17164   0.18190   0.18276   0.18785   0.18799
 Alpha virt. eigenvalues --    0.19442   0.20102   0.20113   0.20575   0.20817
 Alpha virt. eigenvalues --    0.20982   0.21432   0.21877   0.22105   0.22136
 Alpha virt. eigenvalues --    0.22370   0.22370   0.23018   0.23133   0.23548
 Alpha virt. eigenvalues --    0.23911   0.23985   0.24222   0.24266   0.24590
 Alpha virt. eigenvalues --    0.25077   0.25316   0.25506   0.25611   0.26027
 Alpha virt. eigenvalues --    0.26054   0.26414   0.26537   0.26646   0.26768
 Alpha virt. eigenvalues --    0.27214   0.27269   0.27500   0.27837   0.27838
 Alpha virt. eigenvalues --    0.28323   0.28390   0.28750   0.28959   0.29645
 Alpha virt. eigenvalues --    0.29961   0.30151   0.31141   0.32355   0.33160
 Alpha virt. eigenvalues --    0.33315   0.33588   0.33718   0.34080   0.34353
 Alpha virt. eigenvalues --    0.34717   0.35125   0.35238   0.35808   0.36068
 Alpha virt. eigenvalues --    0.36594   0.36824   0.36847   0.37500   0.37868
 Alpha virt. eigenvalues --    0.37984   0.38267   0.38659   0.38839   0.38844
 Alpha virt. eigenvalues --    0.39052   0.39608   0.39619   0.39728   0.40439
 Alpha virt. eigenvalues --    0.40626   0.40727   0.40764   0.40831   0.41023
 Alpha virt. eigenvalues --    0.41056   0.41381   0.41692   0.41923   0.42351
 Alpha virt. eigenvalues --    0.42885   0.43067   0.43072   0.43268   0.43311
 Alpha virt. eigenvalues --    0.43505   0.43701   0.43940   0.44116   0.44196
 Alpha virt. eigenvalues --    0.44514   0.44931   0.45281   0.45712   0.45868
 Alpha virt. eigenvalues --    0.46069   0.46107   0.46492   0.46723   0.46793
 Alpha virt. eigenvalues --    0.47155   0.47616   0.48336   0.48443   0.49378
 Alpha virt. eigenvalues --    0.49390   0.49499   0.50626   0.50905   0.51432
 Alpha virt. eigenvalues --    0.51453   0.51670   0.52314   0.52598   0.53596
 Alpha virt. eigenvalues --    0.53935   0.53998   0.54270   0.54737   0.54941
 Alpha virt. eigenvalues --    0.55072   0.55557   0.55974   0.56474   0.56562
 Alpha virt. eigenvalues --    0.56950   0.57274   0.57562   0.57624   0.57718
 Alpha virt. eigenvalues --    0.58417   0.58497   0.58730   0.58982   0.59631
 Alpha virt. eigenvalues --    0.59844   0.60313   0.60369   0.60457   0.60808
 Alpha virt. eigenvalues --    0.61118   0.61718   0.61809   0.61931   0.62058
 Alpha virt. eigenvalues --    0.62331   0.62881   0.63386   0.64057   0.64139
 Alpha virt. eigenvalues --    0.64334   0.64472   0.64832   0.65062   0.65392
 Alpha virt. eigenvalues --    0.65667   0.65853   0.66163   0.67133   0.67836
 Alpha virt. eigenvalues --    0.68018   0.68347   0.68789   0.69088   0.70035
 Alpha virt. eigenvalues --    0.70389   0.70871   0.71133   0.71471   0.72089
 Alpha virt. eigenvalues --    0.72225   0.72606   0.73341   0.73368   0.73776
 Alpha virt. eigenvalues --    0.74076   0.74540   0.75177   0.75467   0.76051
 Alpha virt. eigenvalues --    0.76064   0.76845   0.77071   0.77570   0.77760
 Alpha virt. eigenvalues --    0.77971   0.78505   0.78585   0.79019   0.79267
 Alpha virt. eigenvalues --    0.79556   0.79688   0.79910   0.80006   0.80555
 Alpha virt. eigenvalues --    0.81038   0.81694   0.81733   0.82239   0.82250
 Alpha virt. eigenvalues --    0.82655   0.82719   0.83036   0.83361   0.83681
 Alpha virt. eigenvalues --    0.84506   0.84559   0.84744   0.84970   0.85157
 Alpha virt. eigenvalues --    0.85729   0.85751   0.86399   0.87070   0.87073
 Alpha virt. eigenvalues --    0.87357   0.87391   0.87785   0.88650   0.89261
 Alpha virt. eigenvalues --    0.89554   0.89563   0.89707   0.89867   0.90267
 Alpha virt. eigenvalues --    0.90523   0.90634   0.90661   0.91307   0.91526
 Alpha virt. eigenvalues --    0.92392   0.92724   0.93277   0.93511   0.93880
 Alpha virt. eigenvalues --    0.94254   0.94443   0.94764   0.94861   0.95324
 Alpha virt. eigenvalues --    0.95707   0.96329   0.96384   0.96587   0.97188
 Alpha virt. eigenvalues --    0.97441   0.98265   0.98268   0.98823   0.99957
 Alpha virt. eigenvalues --    0.99984   1.00271   1.00848   1.01130   1.01219
 Alpha virt. eigenvalues --    1.01480   1.02039   1.02431   1.02536   1.02742
 Alpha virt. eigenvalues --    1.03241   1.03690   1.03934   1.04439   1.04788
 Alpha virt. eigenvalues --    1.05198   1.05666   1.06256   1.06288   1.06908
 Alpha virt. eigenvalues --    1.07124   1.07952   1.09308   1.09768   1.10599
 Alpha virt. eigenvalues --    1.11141   1.11814   1.12033   1.12562   1.12898
 Alpha virt. eigenvalues --    1.13050   1.13077   1.13200   1.13772   1.13833
 Alpha virt. eigenvalues --    1.14022   1.14413   1.15051   1.15208   1.16136
 Alpha virt. eigenvalues --    1.17041   1.17333   1.18340   1.18542   1.18830
 Alpha virt. eigenvalues --    1.20007   1.20240   1.21614   1.21622   1.22180
 Alpha virt. eigenvalues --    1.22788   1.23769   1.24678   1.25381   1.25387
 Alpha virt. eigenvalues --    1.25776   1.26884   1.27567   1.27895   1.28339
 Alpha virt. eigenvalues --    1.28914   1.29107   1.29620   1.30342   1.30733
 Alpha virt. eigenvalues --    1.31266   1.32754   1.32761   1.33153   1.33412
 Alpha virt. eigenvalues --    1.33922   1.35904   1.36618   1.37271   1.40150
 Alpha virt. eigenvalues --    1.40404   1.41533   1.42027   1.42291   1.42858
 Alpha virt. eigenvalues --    1.43799   1.43815   1.44908   1.45372   1.45432
 Alpha virt. eigenvalues --    1.46629   1.46816   1.46870   1.47135   1.47549
 Alpha virt. eigenvalues --    1.47764   1.48443   1.48495   1.49071   1.49444
 Alpha virt. eigenvalues --    1.49635   1.49730   1.50271   1.51141   1.51710
 Alpha virt. eigenvalues --    1.52777   1.53151   1.53344   1.53940   1.53944
 Alpha virt. eigenvalues --    1.54249   1.55154   1.56192   1.56847   1.57445
 Alpha virt. eigenvalues --    1.57747   1.58024   1.58187   1.58274   1.58711
 Alpha virt. eigenvalues --    1.59454   1.59614   1.60301   1.60988   1.61542
 Alpha virt. eigenvalues --    1.61553   1.62289   1.63640   1.63832   1.63891
 Alpha virt. eigenvalues --    1.64688   1.64697   1.65333   1.66447   1.66786
 Alpha virt. eigenvalues --    1.67549   1.67671   1.68844   1.70873   1.71346
 Alpha virt. eigenvalues --    1.71767   1.73084   1.73188   1.74313   1.74799
 Alpha virt. eigenvalues --    1.75138   1.75531   1.75770   1.76408   1.76961
 Alpha virt. eigenvalues --    1.77561   1.77604   1.78082   1.79024   1.79129
 Alpha virt. eigenvalues --    1.80390   1.80768   1.80796   1.81278   1.81901
 Alpha virt. eigenvalues --    1.82436   1.83771   1.84014   1.85514   1.85744
 Alpha virt. eigenvalues --    1.85948   1.86100   1.86701   1.87166   1.87214
 Alpha virt. eigenvalues --    1.87645   1.87734   1.88047   1.88353   1.88975
 Alpha virt. eigenvalues --    1.89574   1.89841   1.90123   1.90371   1.90844
 Alpha virt. eigenvalues --    1.91717   1.91801   1.92119   1.92243   1.92362
 Alpha virt. eigenvalues --    1.92917   1.93394   1.93737   1.93883   1.94356
 Alpha virt. eigenvalues --    1.94596   1.94985   1.95328   1.95349   1.96290
 Alpha virt. eigenvalues --    1.96759   1.96938   1.97688   1.97853   1.98222
 Alpha virt. eigenvalues --    1.98842   1.98912   1.99430   2.00973   2.01202
 Alpha virt. eigenvalues --    2.01731   2.01752   2.02103   2.03320   2.03394
 Alpha virt. eigenvalues --    2.05108   2.05266   2.07304   2.09097   2.09371
 Alpha virt. eigenvalues --    2.10489   2.11839   2.11944   2.12460   2.13807
 Alpha virt. eigenvalues --    2.13909   2.14575   2.14960   2.15014   2.15289
 Alpha virt. eigenvalues --    2.15393   2.16821   2.17416   2.17737   2.19212
 Alpha virt. eigenvalues --    2.19302   2.20435   2.21013   2.21336   2.21618
 Alpha virt. eigenvalues --    2.22011   2.22262   2.23460   2.24343   2.24396
 Alpha virt. eigenvalues --    2.25912   2.26146   2.26581   2.27766   2.28215
 Alpha virt. eigenvalues --    2.28424   2.28698   2.31408   2.31494   2.31913
 Alpha virt. eigenvalues --    2.31927   2.32213   2.32393   2.32490   2.34744
 Alpha virt. eigenvalues --    2.35551   2.37048   2.37774   2.38119   2.38620
 Alpha virt. eigenvalues --    2.39072   2.39782   2.41175   2.41339   2.41733
 Alpha virt. eigenvalues --    2.42622   2.42791   2.43017   2.43173   2.44178
 Alpha virt. eigenvalues --    2.45406   2.45461   2.45925   2.45933   2.46473
 Alpha virt. eigenvalues --    2.46545   2.48269   2.49952   2.51827   2.51934
 Alpha virt. eigenvalues --    2.53893   2.55053   2.55089   2.55357   2.56368
 Alpha virt. eigenvalues --    2.57077   2.57281   2.57476   2.57775   2.58768
 Alpha virt. eigenvalues --    2.59169   2.59559   2.59687   2.60600   2.60684
 Alpha virt. eigenvalues --    2.61034   2.61366   2.62100   2.62142   2.62987
 Alpha virt. eigenvalues --    2.63307   2.63487   2.63993   2.64945   2.65307
 Alpha virt. eigenvalues --    2.65378   2.65490   2.65791   2.66059   2.66202
 Alpha virt. eigenvalues --    2.66268   2.66488   2.67610   2.67697   2.67734
 Alpha virt. eigenvalues --    2.68373   2.68387   2.69038   2.69187   2.69365
 Alpha virt. eigenvalues --    2.69734   2.71041   2.71679   2.72066   2.72306
 Alpha virt. eigenvalues --    2.72486   2.73085   2.73346   2.74008   2.75003
 Alpha virt. eigenvalues --    2.75225   2.75573   2.76409   2.77050   2.77283
 Alpha virt. eigenvalues --    2.77974   2.78577   2.78842   2.78847   2.80087
 Alpha virt. eigenvalues --    2.80207   2.80545   2.82104   2.82887   2.84069
 Alpha virt. eigenvalues --    2.85662   2.86183   2.86885   2.87574   2.88036
 Alpha virt. eigenvalues --    2.90383   2.91224   2.92016   2.92542   2.94214
 Alpha virt. eigenvalues --    2.95385   2.95559   2.96521   2.96812   2.98167
 Alpha virt. eigenvalues --    3.01259   3.02191   3.04159   3.04630   3.04859
 Alpha virt. eigenvalues --    3.06331   3.07458   3.08702   3.09151   3.10801
 Alpha virt. eigenvalues --    3.11214   3.12135   3.12721   3.13636   3.14583
 Alpha virt. eigenvalues --    3.17110   3.17277   3.17729   3.18571   3.19647
 Alpha virt. eigenvalues --    3.20311   3.20770   3.20962   3.21874   3.22160
 Alpha virt. eigenvalues --    3.22559   3.23357   3.23998   3.25413   3.28330
 Alpha virt. eigenvalues --    3.32411   3.32877   3.32980   3.34760   3.35770
 Alpha virt. eigenvalues --    3.38801   3.39626   3.40325   3.40399   3.40953
 Alpha virt. eigenvalues --    3.41181   3.41424   3.43724   3.45555   3.46033
 Alpha virt. eigenvalues --    3.49300   3.49483   3.50704   3.50837   3.53816
 Alpha virt. eigenvalues --    3.54218   3.54999   3.58098   3.59161   3.60240
 Alpha virt. eigenvalues --    3.60746   3.64359   3.66253   3.67887   3.68064
 Alpha virt. eigenvalues --    3.69412   3.69680   3.71059   3.73856   3.74422
 Alpha virt. eigenvalues --    3.81232   3.92214   3.92912   3.93407   3.97471
 Alpha virt. eigenvalues --    4.02694   4.03173   4.03345   4.04676   4.05497
 Alpha virt. eigenvalues --    4.05708   4.06260   4.07287   4.12978   4.16671
 Alpha virt. eigenvalues --    4.20502   4.22087   4.24490   4.33072   4.36817
 Alpha virt. eigenvalues --    4.41408   4.47892   4.63655   4.79600   4.80178
 Alpha virt. eigenvalues --    4.80956   4.81120   4.82843   4.83935   4.87474
 Alpha virt. eigenvalues --    9.61971   9.62447   9.66595   9.66689   9.67422
 Alpha virt. eigenvalues --    9.68042   9.68232   9.69927  23.33429  23.44334
 Alpha virt. eigenvalues --   23.46387  23.52200  23.71289  23.73645  23.83544
 Alpha virt. eigenvalues --   23.83611  23.84454  23.86572  23.87444  23.87857
 Alpha virt. eigenvalues --   23.89063  23.90968  23.94518  23.95179  23.96683
 Alpha virt. eigenvalues --   23.98319  24.00333  24.01400  24.01411  24.03715
 Alpha virt. eigenvalues --   24.04073  24.04883  24.06682  24.10726  24.10741
 Alpha virt. eigenvalues --   24.12257  24.14994  24.16244  24.16264  24.16582
 Alpha virt. eigenvalues --   24.18276  24.19423  24.20276  24.20616  24.24154
 Alpha virt. eigenvalues --   24.26271  24.26360  25.45690  25.45786  25.47400
 Alpha virt. eigenvalues --   25.53801  25.53889  25.55232  25.63554  25.64033
 Alpha virt. eigenvalues --   25.76140  25.76851  25.81432  25.93516  25.95716
 Alpha virt. eigenvalues --   26.01298  26.02327  26.03342  26.31098  26.31689
 Alpha virt. eigenvalues --   26.34378  26.34621  26.49843  26.55728  26.60458
 Alpha virt. eigenvalues --   26.61718 215.75454 215.75891 215.80424 215.80547
 Alpha virt. eigenvalues --  215.81894 215.82563 215.82773 215.84491
  Beta  occ. eigenvalues -- -101.74012-101.74011-101.73628-101.73628-101.73592
  Beta  occ. eigenvalues -- -101.73592-101.73194-101.73194 -10.30591 -10.30591
  Beta  occ. eigenvalues --  -10.30585 -10.30585 -10.30418 -10.30418 -10.29868
  Beta  occ. eigenvalues --  -10.29868 -10.27114 -10.27113 -10.26704 -10.26656
  Beta  occ. eigenvalues --  -10.25440 -10.24972 -10.24972 -10.24970 -10.24970
  Beta  occ. eigenvalues --  -10.24334 -10.23975 -10.23973 -10.23847 -10.23477
  Beta  occ. eigenvalues --  -10.23259 -10.23252 -10.22986 -10.22984 -10.22981
  Beta  occ. eigenvalues --  -10.22981 -10.22747 -10.22745 -10.21995 -10.21918
  Beta  occ. eigenvalues --  -10.21918 -10.21832 -10.21832 -10.21788 -10.21788
  Beta  occ. eigenvalues --  -10.21652 -10.21652  -9.54372  -9.54372  -9.54016
  Beta  occ. eigenvalues --   -9.54015  -9.53979  -9.53979  -9.53585  -9.53585
  Beta  occ. eigenvalues --   -7.27899  -7.27898  -7.27544  -7.27544  -7.27508
  Beta  occ. eigenvalues --   -7.27508  -7.27107  -7.27107  -7.26915  -7.26915
  Beta  occ. eigenvalues --   -7.26886  -7.26886  -7.26561  -7.26561  -7.26525
  Beta  occ. eigenvalues --   -7.26525  -7.26520  -7.26520  -7.26482  -7.26482
  Beta  occ. eigenvalues --   -7.26133  -7.26133  -7.26095  -7.26095  -0.95508
  Beta  occ. eigenvalues --   -0.94302  -0.93397  -0.90763  -0.90473  -0.90075
  Beta  occ. eigenvalues --   -0.89898  -0.89890  -0.89361  -0.88937  -0.86768
  Beta  occ. eigenvalues --   -0.85370  -0.83871  -0.83515  -0.82862  -0.82163
  Beta  occ. eigenvalues --   -0.81164  -0.78662  -0.77413  -0.77010  -0.76618
  Beta  occ. eigenvalues --   -0.76532  -0.76526  -0.75668  -0.75435  -0.75346
  Beta  occ. eigenvalues --   -0.71760  -0.69059  -0.66156  -0.65035  -0.64067
  Beta  occ. eigenvalues --   -0.63493  -0.63251  -0.62885  -0.62787  -0.61671
  Beta  occ. eigenvalues --   -0.61186  -0.60055  -0.59877  -0.58615  -0.55174
  Beta  occ. eigenvalues --   -0.54951  -0.54802  -0.53358  -0.53328  -0.52724
  Beta  occ. eigenvalues --   -0.51792  -0.51401  -0.51141  -0.49358  -0.48594
  Beta  occ. eigenvalues --   -0.48008  -0.47482  -0.47290  -0.46980  -0.46931
  Beta  occ. eigenvalues --   -0.46019  -0.45971  -0.45774  -0.45725  -0.45513
  Beta  occ. eigenvalues --   -0.45388  -0.44982  -0.44018  -0.43736  -0.43451
  Beta  occ. eigenvalues --   -0.43258  -0.43181  -0.42542  -0.41902  -0.41413
  Beta  occ. eigenvalues --   -0.40915  -0.40719  -0.40479  -0.40117  -0.39929
  Beta  occ. eigenvalues --   -0.39338  -0.38826  -0.38481  -0.38364  -0.38276
  Beta  occ. eigenvalues --   -0.38169  -0.37747  -0.37260  -0.37098  -0.36860
  Beta  occ. eigenvalues --   -0.36703  -0.35573  -0.35013  -0.34211  -0.33876
  Beta  occ. eigenvalues --   -0.33613  -0.33548  -0.33513  -0.33245  -0.33111
  Beta  occ. eigenvalues --   -0.32951  -0.32581  -0.32143  -0.32128  -0.31817
  Beta  occ. eigenvalues --   -0.31270  -0.30944  -0.30321  -0.28543  -0.27085
  Beta  occ. eigenvalues --   -0.26989  -0.26474  -0.26270  -0.26085  -0.25994
  Beta  occ. eigenvalues --   -0.25555  -0.24619  -0.24503  -0.19830
  Beta virt. eigenvalues --   -0.13769  -0.08648  -0.07316  -0.06446  -0.05948
  Beta virt. eigenvalues --   -0.05084  -0.04627  -0.04134  -0.03165  -0.03105
  Beta virt. eigenvalues --   -0.02662  -0.02068  -0.01362  -0.00567   0.00868
  Beta virt. eigenvalues --    0.01987   0.02531   0.02749   0.02835   0.02843
  Beta virt. eigenvalues --    0.03098   0.03849   0.04342   0.04509   0.04895
  Beta virt. eigenvalues --    0.06102   0.06457   0.06899   0.07400   0.07636
  Beta virt. eigenvalues --    0.08018   0.08766   0.08773   0.08828   0.09273
  Beta virt. eigenvalues --    0.09406   0.10193   0.10620   0.11269   0.11982
  Beta virt. eigenvalues --    0.12207   0.12999   0.13424   0.13893   0.14419
  Beta virt. eigenvalues --    0.14809   0.17849   0.18403   0.18421   0.18803
  Beta virt. eigenvalues --    0.19006   0.19668   0.20179   0.20202   0.20628
  Beta virt. eigenvalues --    0.20965   0.20988   0.21477   0.21973   0.22167
  Beta virt. eigenvalues --    0.22307   0.22423   0.22486   0.23038   0.23201
  Beta virt. eigenvalues --    0.23553   0.23950   0.24154   0.24289   0.24295
  Beta virt. eigenvalues --    0.24651   0.25171   0.25441   0.25574   0.25956
  Beta virt. eigenvalues --    0.26093   0.26144   0.26462   0.26650   0.26846
  Beta virt. eigenvalues --    0.27129   0.27255   0.27370   0.27510   0.27897
  Beta virt. eigenvalues --    0.28009   0.28385   0.28420   0.28762   0.29047
  Beta virt. eigenvalues --    0.29723   0.30195   0.30239   0.31242   0.32439
  Beta virt. eigenvalues --    0.33329   0.33390   0.33599   0.33762   0.34126
  Beta virt. eigenvalues --    0.34515   0.34725   0.35273   0.35319   0.35880
  Beta virt. eigenvalues --    0.36232   0.36701   0.36851   0.37192   0.37544
  Beta virt. eigenvalues --    0.37889   0.38135   0.38579   0.38685   0.38904
  Beta virt. eigenvalues --    0.38942   0.39059   0.39622   0.39650   0.39835
  Beta virt. eigenvalues --    0.40580   0.40674   0.40782   0.40800   0.40960
  Beta virt. eigenvalues --    0.41089   0.41176   0.41467   0.41697   0.41991
  Beta virt. eigenvalues --    0.42444   0.43063   0.43183   0.43245   0.43332
  Beta virt. eigenvalues --    0.43538   0.43634   0.43822   0.43991   0.44300
  Beta virt. eigenvalues --    0.44504   0.44631   0.45072   0.45307   0.45750
  Beta virt. eigenvalues --    0.46010   0.46072   0.46121   0.46497   0.46736
  Beta virt. eigenvalues --    0.46886   0.47168   0.47621   0.48369   0.48452
  Beta virt. eigenvalues --    0.49458   0.49477   0.49534   0.50805   0.51097
  Beta virt. eigenvalues --    0.51531   0.51562   0.52001   0.52354   0.52677
  Beta virt. eigenvalues --    0.53728   0.53987   0.54034   0.54477   0.54904
  Beta virt. eigenvalues --    0.55040   0.55196   0.55590   0.55987   0.56642
  Beta virt. eigenvalues --    0.56660   0.57047   0.57301   0.57638   0.57703
  Beta virt. eigenvalues --    0.57757   0.58518   0.58689   0.58775   0.59028
  Beta virt. eigenvalues --    0.59675   0.59860   0.60319   0.60429   0.60508
  Beta virt. eigenvalues --    0.60819   0.61532   0.61741   0.61823   0.61990
  Beta virt. eigenvalues --    0.62107   0.62496   0.62887   0.63470   0.64075
  Beta virt. eigenvalues --    0.64355   0.64591   0.64747   0.64873   0.65302
  Beta virt. eigenvalues --    0.65631   0.65860   0.65994   0.66198   0.67253
  Beta virt. eigenvalues --    0.67866   0.68073   0.68379   0.68859   0.69236
  Beta virt. eigenvalues --    0.70215   0.70450   0.70937   0.71173   0.71486
  Beta virt. eigenvalues --    0.72123   0.72297   0.72640   0.73374   0.73388
  Beta virt. eigenvalues --    0.73808   0.74272   0.74584   0.75318   0.75488
  Beta virt. eigenvalues --    0.76209   0.76266   0.76888   0.77121   0.77654
  Beta virt. eigenvalues --    0.77855   0.78010   0.78544   0.78676   0.79061
  Beta virt. eigenvalues --    0.79319   0.79644   0.79750   0.79961   0.80100
  Beta virt. eigenvalues --    0.80590   0.81142   0.81792   0.81830   0.82272
  Beta virt. eigenvalues --    0.82291   0.82739   0.82842   0.83103   0.83458
  Beta virt. eigenvalues --    0.83741   0.84575   0.84599   0.84820   0.85019
  Beta virt. eigenvalues --    0.85189   0.85792   0.86007   0.86446   0.87153
  Beta virt. eigenvalues --    0.87177   0.87434   0.87622   0.87935   0.88684
  Beta virt. eigenvalues --    0.89348   0.89654   0.89675   0.89783   0.90061
  Beta virt. eigenvalues --    0.90388   0.90607   0.90694   0.90892   0.91380
  Beta virt. eigenvalues --    0.91720   0.92547   0.92852   0.93329   0.93694
  Beta virt. eigenvalues --    0.93943   0.94388   0.94626   0.94915   0.94923
  Beta virt. eigenvalues --    0.95495   0.95733   0.96388   0.96392   0.96567
  Beta virt. eigenvalues --    0.97198   0.97487   0.98290   0.98325   0.98911
  Beta virt. eigenvalues --    1.00005   1.00144   1.00534   1.00905   1.01221
  Beta virt. eigenvalues --    1.01265   1.01682   1.02169   1.02620   1.02663
  Beta virt. eigenvalues --    1.02838   1.03377   1.03713   1.04029   1.04450
  Beta virt. eigenvalues --    1.04822   1.05268   1.05672   1.06330   1.06338
  Beta virt. eigenvalues --    1.06928   1.07166   1.07971   1.09316   1.09770
  Beta virt. eigenvalues --    1.10671   1.11169   1.11909   1.12178   1.12590
  Beta virt. eigenvalues --    1.12949   1.13103   1.13189   1.13293   1.13837
  Beta virt. eigenvalues --    1.13906   1.14083   1.14497   1.15198   1.15221
  Beta virt. eigenvalues --    1.16209   1.17167   1.17371   1.18503   1.18574
  Beta virt. eigenvalues --    1.18917   1.20058   1.20442   1.21751   1.21772
  Beta virt. eigenvalues --    1.22193   1.22925   1.23843   1.24732   1.25401
[...]

       Atom             a.u.   MegaHertz   Gauss  10(-4) cm-1        Axes

              Baa    -0.0159    -2.131    -0.760    -0.711  0.0000  0.4285  0.9036
     1 C(13)  Bbb     0.0068     0.915     0.327     0.305 -0.0000  0.9036 -0.4285
              Bcc     0.0091     1.216     0.434     0.406  1.0000  0.0000 -0.0000
 
              Baa    -0.0107    -1.434    -0.512    -0.478 -0.3574  0.8603 -0.3634
     2 C(13)  Bbb    -0.0086    -1.150    -0.410    -0.384  0.9172  0.3966  0.0368
              Bcc     0.0193     2.584     0.922     0.862 -0.1758  0.3202  0.9309
 
              Baa    -0.0105    -1.411    -0.503    -0.471  0.0126  0.4390  0.8984
     3 C(13)  Bbb     0.0043     0.583     0.208     0.194  0.0630  0.8963 -0.4389
              Bcc     0.0062     0.828     0.295     0.276  0.9979 -0.0621  0.0164
 
              Baa    -0.0115    -1.546    -0.552    -0.516 -0.0000  0.9013 -0.4331
     4 C(13)  Bbb    -0.0100    -1.347    -0.481    -0.449  1.0000 -0.0000 -0.0000
              Bcc     0.0216     2.893     1.032     0.965  0.0000  0.4331  0.9013
 
              Baa    -0.0105    -1.411    -0.503    -0.471 -0.0126  0.4390  0.8984
     5 C(13)  Bbb     0.0043     0.583     0.208     0.194 -0.0630  0.8963 -0.4389
              Bcc     0.0062     0.828     0.295     0.276  0.9979  0.0621 -0.0164
 
              Baa    -0.0107    -1.434    -0.512    -0.478  0.3574  0.8603 -0.3634
     6 C(13)  Bbb    -0.0086    -1.150    -0.410    -0.384  0.9173 -0.3966 -0.0368
              Bcc     0.0193     2.584     0.922     0.862  0.1758  0.3202  0.9309
 
              Baa    -0.0594    -7.972    -2.844    -2.659  0.0000 -0.5273  0.8497
     7 C(13)  Bbb    -0.0530    -7.111    -2.538    -2.372  1.0000 -0.0000 -0.0000
              Bcc     0.1124    15.083     5.382     5.031  0.0000  0.8497  0.5273
 
              Baa    -0.0577    -7.745    -2.763    -2.583 -0.0085  0.8823  0.4706
     8 C(13)  Bbb     0.0247     3.317     1.184     1.107 -0.0049 -0.4706  0.8823
              Bcc     0.0330     4.427     1.580     1.477  1.0000  0.0052  0.0083
 
              Baa    -0.0627    -8.414    -3.002    -2.807  0.4650 -0.3430  0.8162
     9 C(13)  Bbb    -0.0495    -6.638    -2.369    -2.214  0.8633 -0.0284 -0.5038
              Bcc     0.1122    15.052     5.371     5.021  0.1960  0.9389  0.2829
 
              Baa    -0.0966   -12.965    -4.626    -4.325 -0.0000  0.8522  0.5233
    10 C(13)  Bbb     0.0407     5.461     1.949     1.822  0.0000 -0.5233  0.8522
              Bcc     0.0559     7.504     2.678     2.503  1.0000  0.0001 -0.0000
 
              Baa    -0.0627    -8.414    -3.002    -2.806 -0.4650 -0.3430  0.8162
    11 C(13)  Bbb    -0.0495    -6.638    -2.369    -2.214  0.8633  0.0284  0.5038
              Bcc     0.1122    15.052     5.371     5.021 -0.1960  0.9389  0.2829
 
              Baa    -0.0577    -7.744    -2.763    -2.583  0.0085  0.8823  0.4706
    12 C(13)  Bbb     0.0247     3.317     1.184     1.107  0.0049 -0.4707  0.8823
              Bcc     0.0330     4.427     1.580     1.477  1.0000 -0.0052 -0.0083
 
              Baa    -0.0010    -0.524    -0.187    -0.175  0.0026  0.6393  0.7690
    13 H(1)   Bbb    -0.0001    -0.033    -0.012    -0.011  0.9892  0.1109 -0.0955
              Bcc     0.0010     0.557     0.199     0.186 -0.1464  0.7609 -0.6321
 
              Baa    -0.0005    -0.266    -0.095    -0.089  0.0094  0.3757  0.9267
    14 H(1)   Bbb    -0.0003    -0.166    -0.059    -0.055  0.2094  0.9054 -0.3692
              Bcc     0.0008     0.432     0.154     0.144  0.9778 -0.1975  0.0702
 
              Baa    -0.0005    -0.266    -0.095    -0.089 -0.0093  0.3758  0.9267
    15 H(1)   Bbb    -0.0003    -0.166    -0.059    -0.055 -0.2094  0.9054 -0.3693
              Bcc     0.0008     0.432     0.154     0.144  0.9778  0.1975 -0.0702
 
              Baa    -0.0010    -0.524    -0.187    -0.175 -0.0026  0.6393  0.7690
    16 H(1)   Bbb    -0.0001    -0.033    -0.012    -0.011  0.9892 -0.1109  0.0956
              Bcc     0.0010     0.557     0.199     0.186  0.1464  0.7609 -0.6321
 
              Baa    -0.0023    -1.222    -0.436    -0.408 -0.0275  0.9055  0.4236
    17 H(1)   Bbb    -0.0015    -0.811    -0.289    -0.270 -0.2649 -0.4152  0.8703
              Bcc     0.0038     2.033     0.725     0.678  0.9639 -0.0883  0.2513
 
              Baa    -0.0023    -1.222    -0.436    -0.408  0.0274  0.9055  0.4234
    18 H(1)   Bbb    -0.0015    -0.811    -0.289    -0.270  0.2649 -0.4150  0.8704
              Bcc     0.0038     2.033     0.725     0.678  0.9639  0.0883 -0.2513
 
              Baa    -0.4322   -57.999   -20.696   -19.346  1.0000  0.0030 -0.0007
    19 C(13)  Bbb    -0.4317   -57.932   -20.672   -19.324 -0.0031  0.9717 -0.2361
              Bcc     0.8639   115.932    41.367    38.671 -0.0000  0.2361  0.9717
 
              Baa    -0.0898   -12.046    -4.298    -4.018 -0.6219 -0.1839  0.7612
    20 C(13)  Bbb     0.0375     5.035     1.797     1.679  0.6034  0.5071  0.6154
              Bcc     0.0522     7.011     2.502     2.338 -0.4992  0.8420 -0.2044
 
              Baa    -0.0602    -8.084    -2.885    -2.697  0.2118  0.8092  0.5480
    21 C(13)  Bbb    -0.0467    -6.262    -2.235    -2.089  0.4956 -0.5722  0.6534
              Bcc     0.1069    14.346     5.119     4.785  0.8423  0.1332 -0.5223
 
              Baa    -0.0602    -8.072    -2.880    -2.693  0.6787  0.0172  0.7342
    22 C(13)  Bbb    -0.0466    -6.250    -2.230    -2.085 -0.3635  0.8766  0.3154
              Bcc     0.1067    14.323     5.111     4.778  0.6382  0.4810 -0.6012
 
              Baa    -0.0545    -7.318    -2.611    -2.441 -0.6395 -0.2178  0.7373
    23 C(13)  Bbb     0.0232     3.117     1.112     1.040  0.5643  0.5183  0.6426
              Bcc     0.0313     4.201     1.499     1.401 -0.5221  0.8270 -0.2086
 
              Baa    -0.0545    -7.320    -2.612    -2.442 -0.6508 -0.1990  0.7327
    24 C(13)  Bbb     0.0232     3.109     1.109     1.037  0.5872  0.4799  0.6519
              Bcc     0.0314     4.211     1.503     1.405 -0.4814  0.8544 -0.1955
 
              Baa    -0.0588    -7.889    -2.815    -2.632  0.6017  0.5073  0.6169
    25 C(13)  Bbb    -0.0512    -6.872    -2.452    -2.292 -0.5018  0.8410 -0.2023
              Bcc     0.1100    14.761     5.267     4.924 -0.6214 -0.1878  0.7606
 
              Baa    -0.0022    -1.187    -0.423    -0.396 -0.6816 -0.2573  0.6850
    26 H(1)   Bbb    -0.0012    -0.635    -0.226    -0.212  0.6419  0.2393  0.7285
              Bcc     0.0034     1.821     0.650     0.608 -0.3514  0.9362  0.0021
 
              Baa    -0.0898   -12.049    -4.299    -4.019  0.6217 -0.1838  0.7613
    27 C(13)  Bbb     0.0375     5.037     1.797     1.680 -0.6036  0.5071  0.6153
              Bcc     0.0523     7.013     2.502     2.339  0.4991  0.8421 -0.2043
 
              Baa    -0.0602    -8.075    -2.881    -2.694 -0.6788  0.0173  0.7341
    28 C(13)  Bbb    -0.0466    -6.253    -2.231    -2.086  0.3633  0.8767  0.3154
              Bcc     0.1068    14.328     5.113     4.779  0.6381 -0.4808  0.6014
 
              Baa    -0.0603    -8.087    -2.886    -2.697 -0.2120  0.8092  0.5479
    29 C(13)  Bbb    -0.0467    -6.265    -2.236    -2.090 -0.4958 -0.5722  0.6533
              Bcc     0.1070    14.352     5.121     4.787  0.8422 -0.1332  0.5225
 
              Baa    -0.0546    -7.323    -2.613    -2.443  0.6506 -0.1989  0.7329
    30 C(13)  Bbb     0.0232     3.111     1.110     1.038 -0.5873  0.4801  0.6517
              Bcc     0.0314     4.212     1.503     1.405  0.4815  0.8544 -0.1955
 
              Baa    -0.0546    -7.321    -2.612    -2.442  0.6393 -0.2177  0.7375
    31 C(13)  Bbb     0.0232     3.118     1.113     1.040 -0.5645  0.5183  0.6424
              Bcc     0.0313     4.203     1.500     1.402  0.5221  0.8270 -0.2084
 
              Baa    -0.0588    -7.893    -2.816    -2.633 -0.6019  0.5074  0.6167
    32 C(13)  Bbb    -0.0512    -6.875    -2.453    -2.293  0.5018  0.8410 -0.2022
              Bcc     0.1100    14.768     5.269     4.926  0.6213 -0.1877  0.7608
 
              Baa    -0.0022    -1.186    -0.423    -0.396  0.6939 -0.2353  0.6806
    33 H(1)   Bbb    -0.0012    -0.634    -0.226    -0.211 -0.3744  0.6895  0.6201
              Bcc     0.0034     1.820     0.649     0.607  0.6151  0.6850 -0.3903
 
              Baa    -0.0022    -1.187    -0.424    -0.396  0.6814 -0.2572  0.6852
    34 H(1)   Bbb    -0.0012    -0.635    -0.227    -0.212 -0.6421  0.2392  0.7283
              Bcc     0.0034     1.822     0.650     0.608  0.3513  0.9363  0.0022
 
              Baa    -0.0597    -3.127    -1.116    -1.043 -0.5014  0.8413 -0.2017
    35 Cl(35) Bbb    -0.0335    -1.751    -0.625    -0.584  0.5327  0.4840  0.6942
              Bcc     0.0932     4.878     1.741     1.627 -0.6817 -0.2406  0.6909
 
              Baa    -0.0445    -2.327    -0.830    -0.776  0.1763  0.8397  0.5137
    36 Cl(35) Bbb    -0.0086    -0.449    -0.160    -0.150  0.8914 -0.3575  0.2785
              Bcc     0.0530     2.775     0.990     0.926 -0.4175 -0.4088  0.8116
 
              Baa    -0.0598    -3.129    -1.116    -1.044  0.5015  0.8413 -0.2017
    37 Cl(35) Bbb    -0.0335    -1.752    -0.625    -0.584 -0.5329  0.4840  0.6941
              Bcc     0.0932     4.880     1.741     1.628  0.6816 -0.2405  0.6911
 
              Baa    -0.0434    -2.274    -0.811    -0.758 -0.6976 -0.0428  0.7153
    38 Cl(35) Bbb    -0.0086    -0.450    -0.160    -0.150 -0.0778  0.9968 -0.0161
              Bcc     0.0520     2.723     0.972     0.908  0.7123  0.0669  0.6987
 
              Baa    -0.0445    -2.328    -0.831    -0.776 -0.1765  0.8397  0.5135
    39 Cl(35) Bbb    -0.0086    -0.449    -0.160    -0.150  0.8914  0.3576 -0.2785
              Bcc     0.0531     2.777     0.991     0.926  0.4175 -0.4086  0.8116
 
              Baa    -0.0457    -2.389    -0.853    -0.797 -0.4989 -0.3393  0.7974
    40 Cl(35) Bbb    -0.0098    -0.516    -0.184    -0.172  0.8186 -0.4867  0.3051
              Bcc     0.0555     2.905     1.037     0.969  0.2846  0.8050  0.5206
 
              Baa    -0.0457    -2.389    -0.853    -0.797  0.4989 -0.3393  0.7974
    41 Cl(35) Bbb    -0.0098    -0.515    -0.184    -0.172  0.8186  0.4866 -0.3051
              Bcc     0.0555     2.905     1.037     0.969 -0.2845  0.8050  0.5206
 
              Baa    -0.0009    -0.124    -0.044    -0.041  0.4306  0.4604  0.7763
    42 C(13)  Bbb    -0.0003    -0.044    -0.016    -0.015  0.7775  0.2476 -0.5781
              Bcc     0.0013     0.169     0.060     0.056 -0.4584  0.8525 -0.2514
 
              Baa    -0.0009    -0.124    -0.044    -0.041 -0.4306  0.4605  0.7763
    43 C(13)  Bbb    -0.0003    -0.044    -0.016    -0.015  0.7775 -0.2476  0.5781
              Bcc     0.0013     0.169     0.060     0.056  0.4584  0.8525 -0.2514
 
              Baa    -0.0010    -0.129    -0.046    -0.043 -0.0002 -0.6955  0.7185
    44 C(13)  Bbb     0.0002     0.026     0.009     0.009  0.4263  0.6499  0.6292
              Bcc     0.0008     0.103     0.037     0.034  0.9046 -0.3064 -0.2964
 
              Baa    -0.0008    -0.109    -0.039    -0.036 -0.0254 -0.6863  0.7269
    45 C(13)  Bbb     0.0002     0.029     0.010     0.010  0.1093  0.7209  0.6844
              Bcc     0.0006     0.080     0.028     0.027  0.9937 -0.0968 -0.0567
 
              Baa    -0.0008    -0.109    -0.039    -0.036  0.0254 -0.6863  0.7269
    46 C(13)  Bbb     0.0002     0.029     0.010     0.010 -0.1093  0.7209  0.6844
              Bcc     0.0006     0.080     0.028     0.027  0.9937  0.0968  0.0567
 
              Baa    -0.0010    -0.129    -0.046    -0.043  0.0002 -0.6955  0.7185
    47 C(13)  Bbb     0.0002     0.026     0.009     0.009 -0.4263  0.6499  0.6292
              Bcc     0.0008     0.103     0.037     0.034  0.9046  0.3064  0.2964
 
              Baa    -0.0005    -0.064    -0.023    -0.021  0.4258  0.6196  0.6594
    48 C(13)  Bbb    -0.0002    -0.025    -0.009    -0.008  0.9045 -0.2711 -0.3293
              Bcc     0.0007     0.089     0.032     0.030 -0.0252  0.7366 -0.6758
 
              Baa    -0.0004    -0.219    -0.078    -0.073  0.0037 -0.6232  0.7821
    49 H(1)   Bbb    -0.0001    -0.037    -0.013    -0.012  0.6630  0.5870  0.4646
              Bcc     0.0005     0.256     0.091     0.085  0.7486 -0.5168 -0.4153
 
              Baa    -0.0004    -0.058    -0.021    -0.019  0.3279  0.6368  0.6979
    50 C(13)  Bbb    -0.0002    -0.023    -0.008    -0.008  0.9427 -0.1720 -0.2859
              Bcc     0.0006     0.081     0.029     0.027 -0.0620  0.7516 -0.6567
 
              Baa    -0.0004    -0.058    -0.021    -0.019 -0.3279  0.6368  0.6979
    51 C(13)  Bbb    -0.0002    -0.023    -0.008    -0.008  0.9427  0.1720  0.2859
              Bcc     0.0006     0.081     0.029     0.027  0.0620  0.7516 -0.6567
 
              Baa    -0.0004    -0.219    -0.078    -0.073 -0.0037 -0.6232  0.7820
    52 H(1)   Bbb    -0.0001    -0.037    -0.013    -0.012  0.6630 -0.5870 -0.4646
              Bcc     0.0005     0.256     0.091     0.085  0.7486  0.5168  0.4153
 
              Baa    -0.0005    -0.064    -0.023    -0.021 -0.4258  0.6196  0.6594
    53 C(13)  Bbb    -0.0002    -0.025    -0.009    -0.008  0.9044  0.2711  0.3293
              Bcc     0.0007     0.089     0.032     0.030  0.0253  0.7366 -0.6758
 
              Baa    -0.0007    -0.096    -0.034    -0.032 -0.0160 -0.6987  0.7152
    54 C(13)  Bbb     0.0002     0.032     0.012     0.011  0.3065  0.6775  0.6687
              Bcc     0.0005     0.064     0.023     0.021  0.9517 -0.2299 -0.2033
 
              Baa    -0.0001    -0.067    -0.024    -0.022  0.0551 -0.6446  0.7626
    55 H(1)   Bbb    -0.0000    -0.026    -0.009    -0.009  0.5213  0.6699  0.5286
              Bcc     0.0002     0.093     0.033     0.031  0.8516 -0.3684 -0.3729
 
              Baa    -0.0001    -0.049    -0.017    -0.016  0.1848  0.5674  0.8024
    56 H(1)   Bbb    -0.0001    -0.038    -0.014    -0.013  0.0375  0.8118 -0.5827
              Bcc     0.0002     0.087     0.031     0.029  0.9821 -0.1378 -0.1288
 
              Baa    -0.0007    -0.096    -0.034    -0.032  0.0160 -0.6987  0.7152
    57 C(13)  Bbb     0.0002     0.032     0.012     0.011 -0.3065  0.6775  0.6687
              Bcc     0.0005     0.064     0.023     0.021  0.9517  0.2299  0.2033
 
              Baa    -0.0001    -0.049    -0.017    -0.016 -0.1848  0.5674  0.8024
    58 H(1)   Bbb    -0.0001    -0.038    -0.014    -0.013 -0.0375  0.8118 -0.5827
              Bcc     0.0002     0.087     0.031     0.029  0.9821  0.1378  0.1288
 
              Baa    -0.0001    -0.067    -0.024    -0.022 -0.0551 -0.6446  0.7626
    59 H(1)   Bbb    -0.0000    -0.026    -0.009    -0.009 -0.5213  0.6699  0.5286
              Bcc     0.0002     0.093     0.033     0.031  0.8516  0.3684  0.3729
 
              Baa    -0.0001    -0.042    -0.015    -0.014 -0.0080 -0.7062  0.7080
    60 H(1)   Bbb    -0.0001    -0.027    -0.010    -0.009  0.2297  0.6878  0.6886
              Bcc     0.0001     0.069     0.025     0.023  0.9732 -0.1681 -0.1568
 
              Baa    -0.0001    -0.042    -0.015    -0.014  0.0080 -0.7062  0.7080
    61 H(1)   Bbb    -0.0001    -0.027    -0.010    -0.009 -0.2297  0.6878  0.6886
              Bcc     0.0001     0.069     0.025     0.023  0.9732  0.1682  0.1567
 
              Baa    -0.0020    -0.275    -0.098    -0.092 -0.0000  0.7086 -0.7056
    62 C(13)  Bbb     0.0008     0.104     0.037     0.035  0.0000  0.7056  0.7086
              Bcc     0.0013     0.171     0.061     0.057  1.0000 -0.0000 -0.0000
 
              Baa    -0.0012    -0.160    -0.057    -0.054  0.0000  0.7435  0.6688
    63 C(13)  Bbb    -0.0009    -0.118    -0.042    -0.039  1.0000 -0.0000 -0.0000
              Bcc     0.0021     0.278     0.099     0.093  0.0000 -0.6688  0.7435
 
              Baa    -0.0002    -0.107    -0.038    -0.036  0.0000  0.7249  0.6888
    64 H(1)   Bbb    -0.0001    -0.040    -0.014    -0.013  0.0000 -0.6888  0.7249
              Bcc     0.0003     0.147     0.052     0.049  1.0000 -0.0000 -0.0000
 
              Baa    -0.0434    -2.273    -0.811    -0.758  0.6974 -0.0428  0.7154
    65 Cl(35) Bbb    -0.0086    -0.449    -0.160    -0.150  0.0779  0.9968 -0.0163
              Bcc     0.0520     2.722     0.971     0.908  0.7125 -0.0671 -0.6985
 
              Baa    -0.0022    -1.186    -0.423    -0.396  0.6940  0.2354 -0.6804
    66 H(1)   Bbb    -0.0012    -0.633    -0.226    -0.211  0.3743  0.6893  0.6203
              Bcc     0.0034     1.820     0.649     0.607 -0.6150  0.6851 -0.3903
 

 ---------------------------------------------------------------------------------

 No NMR shielding tensors so no spin-rotation constants.
 Leave Link  601 at Fri Jun 13 17:50:04 2025, MaxMem=  7516192768 cpu:              41.5 elap:               1.9
 (Enter /share/apps/softwares/gaussian/16/g16/l9999.exe)
 Unable to Open any file for archive entry.
 1\1\GINC-CN99106\Stability\UHSEH1PBE\6-311G(d,p)\C39H19Cl8(2)\KAE\13-J
 un-2025\0\\#p stable=opt Uhseh1pbe/6-311(d,p)\\molecule\\0,2\C,0,-2.56
 0382,0.00005,0.00004\C,0,-3.281146,1.084511,-0.524456\C,0,-4.671914,1.
 083479,-0.523672\C,0,-5.390973,0.000027,0.000014\C,0,-4.671906,-1.0834
 13,0.523714\C,0,-3.281138,-1.084422,0.524523\C,0,-1.082983,0.000057,0.
 000048\C,0,-0.361588,0.589841,-1.04643\C,0,1.024515,0.585781,-1.039386
 \C,0,1.788555,0.000045,0.000045\C,0,1.024507,-0.585676,1.039481\C,0,-0
 .361593,-0.589727,1.04653\H,0,-2.74723,1.946068,-0.912298\H,0,-5.21483
 6,1.932467,-0.926452\H,0,-5.214822,-1.93241,0.926484\H,0,-2.747216,-1.
 945972,0.912374\H,0,-0.880667,1.013098,-1.897041\H,0,-0.880674,-1.0129
 88,1.897137\C,0,3.250407,-0.000016,0.000026\C,0,3.985089,1.232764,-0.2
 98243\C,0,5.05403,1.274749,-1.225311\C,0,3.676649,2.46709,0.323072\C,0
 ,5.761746,2.435113,-1.51438\C,0,4.362615,3.644424,0.050801\C,0,5.40490
 7,3.614929,-0.869861\H,0,6.56047,2.419872,-2.243877\C,0,3.985085,-1.23
 2793,0.29823\C,0,3.676467,-2.467169,-0.32289\C,0,5.054217,-1.274738,1.
 225096\C,0,4.36245,-3.644501,-0.050653\C,0,5.761959,-2.435096,1.514112
 \C,0,5.404949,-3.614962,0.869777\H,0,4.100133,-4.560022,-0.563842\H,0,
 6.560834,-2.419815,2.243443\Cl,0,6.281629,5.086318,-1.222932\Cl,0,5.48
 9391,-0.146199,-2.152675\Cl,0,6.281702,-5.086343,1.222796\Cl,0,2.44799
 2,-2.559849,-1.568092\Cl,0,5.489809,0.146257,2.152286\Cl,0,1.812445,-1
 .248324,2.46114\Cl,0,1.812439,1.248365,-2.461083\C,0,-7.581984,-0.8765
 64,-0.85765\C,0,-7.582022,0.876574,0.857629\C,0,-6.91876,-1.76098,-1.7
 66425\C,0,-9.026078,-0.87657,-0.847875\C,0,-9.026115,0.876549,0.847822
 \C,0,-6.918837,1.761005,1.766418\C,0,-7.628116,-2.599867,-2.584258\H,0
 ,-5.836071,-1.754612,-1.804272\C,0,-9.726476,-1.770145,-1.7151\C,0,-9.
 726552,1.770108,1.715031\H,0,-5.836148,1.75466,1.804289\C,0,-7.628229,
 2.599876,2.584236\C,0,-9.05136,-2.611354,-2.556581\H,0,-7.102333,-3.26
 0816,-3.266411\H,0,-10.812589,-1.762559,-1.691771\C,0,-9.051473,2.6113
 31,2.556528\H,0,-10.812664,1.762499,1.691678\H,0,-7.102475,3.260836,3.
 2664\H,0,-9.595644,-3.284973,-3.211054\H,0,-9.595786,3.284939,3.210989
 \C,0,-6.880216,0.000012,-0.000003\C,0,-9.707346,-0.000018,-0.000034\H,
 0,-10.794401,-0.00003,-0.000046\Cl,0,2.448472,2.55966,1.568579\H,0,4.1
 00448,4.559909,0.564138\\Version=ES64L-G16RevC.01\State=2-A\HF=-5176.8
 910238\S2=0.779692\S2-1=0.\S2A=0.750826\RMSD=8.350e-09\Dipole=-1.14873
 53,-0.0000314,-0.0000018\Quadrupole=10.3522391,-2.2060329,-8.1462062,-
 0.0001209,-0.0000233,5.150574\PG=C01 [X(C39H19Cl8)]\\@
 The archive entry for this job was punched.


 MY GROUP MEETINGS AREN'T VERY STRUCTURED.
     -- PROF. M. S. GORDON, OCT. 5, 1984
 Job cpu time:       0 days 11 hours 24 minutes  6.3 seconds.
 Elapsed time:       0 days  0 hours 29 minutes  0.9 seconds.
 File lengths (MBytes):  RWF=   6358 Int=      0 D2E=      0 Chk=    173 Scr=      2
 Normal termination of Gaussian 16 at Fri Jun 13 17:50:09 2025.
