 Entering Gaussian System, Link 0=g16
 Input=molecule.gjf
 Output=molecule.log
 Initial command:
 /share/apps/softwares/gaussian/16/g16/l1.exe "/share/home/kae/gaussian/corrtectedOI/torsion/theta90/Gau-23063.inp" -scrdir="/share/home/kae/gaussian/corrtectedOI/torsion/theta90/"
 Entering Link 1 = /share/apps/softwares/gaussian/16/g16/l1.exe PID=     23065.
  
 Copyright (c) 1988-2019, Gaussian, Inc.  All Rights Reserved.
  
 This is part of the Gaussian(R) 16 program.  It is based on
 the Gaussian(R) 09 system (copyright 2009, Gaussian, Inc.),
 the Gaussian(R) 03 system (copyright 2003, Gaussian, Inc.),
 the Gaussian(R) 98 system (copyright 1998, Gaussian, Inc.),
 the Gaussian(R) 94 system (copyright 1995, Gaussian, Inc.),
 the Gaussian 92(TM) system (copyright 1992, Gaussian, Inc.),
 the Gaussian 90(TM) system (copyright 1990, Gaussian, Inc.),
 the Gaussian 88(TM) system (copyright 1988, Gaussian, Inc.),
 the Gaussian 86(TM) system (copyright 1986, Carnegie Mellon
 University), and the Gaussian 82(TM) system (copyright 1983,
 Carnegie Mellon University). Gaussian is a federally registered
 trademark of Gaussian, Inc.
  
 This software contains proprietary and confidential information,
 including trade secrets, belonging to Gaussian, Inc.
  
 This software is provided under written license and may be
 used, copied, transmitted, or stored only in accord with that
 written license.
  
 The following legend is applicable only to US Government
 contracts under FAR:
  
                    RESTRICTED RIGHTS LEGEND
  
 Use, reproduction and disclosure by the US Government is
 subject to restrictions as set forth in subparagraphs (a)
 and (c) of the Commercial Computer Software - Restricted
 Rights clause in FAR 52.227-19.
  
 Gaussian, Inc.
 340 Quinnipiac St., Bldg. 40, Wallingford CT 06492
  
  
 ---------------------------------------------------------------
 Warning -- This program may not be used in any manner that
 competes with the business of Gaussian, Inc. or will provide
 assistance to any competitor of Gaussian, Inc.  The licensee
 of this program is prohibited from giving any competitor of
 Gaussian, Inc. access to this program.  By using this program,
 the user acknowledges that Gaussian, Inc. is engaged in the
 business of creating and licensing software in the field of
 computational chemistry and represents and warrants to the
 licensee that it is not a competitor of Gaussian, Inc. and that
 it will not use this program in any manner prohibited above.
 ---------------------------------------------------------------
  

 Cite this work as:
 Gaussian 16, Revision C.01,
 M. J. Frisch, G. W. Trucks, H. B. Schlegel, G. E. Scuseria, 
 M. A. Robb, J. R. Cheeseman, G. Scalmani, V. Barone, 
 G. A. Petersson, H. Nakatsuji, X. Li, M. Caricato, A. V. Marenich, 
 J. Bloino, B. G. Janesko, R. Gomperts, B. Mennucci, H. P. Hratchian, 
 J. V. Ortiz, A. F. Izmaylov, J. L. Sonnenberg, D. Williams-Young, 
 F. Ding, F. Lipparini, F. Egidi, J. Goings, B. Peng, A. Petrone, 
 T. Henderson, D. Ranasinghe, V. G. Zakrzewski, J. Gao, N. Rega, 
 G. Zheng, W. Liang, M. Hada, M. Ehara, K. Toyota, R. Fukuda, 
 J. Hasegawa, M. Ishida, T. Nakajima, Y. Honda, O. Kitao, H. Nakai, 
 T. Vreven, K. Throssell, J. A. Montgomery, Jr., J. E. Peralta, 
 F. Ogliaro, M. J. Bearpark, J. J. Heyd, E. N. Brothers, K. N. Kudin, 
 V. N. Staroverov, T. A. Keith, R. Kobayashi, J. Normand, 
 K. Raghavachari, A. P. Rendell, J. C. Burant, S. S. Iyengar, 
 J. Tomasi, M. Cossi, J. M. Millam, M. Klene, C. Adamo, R. Cammi, 
 J. W. Ochterski, R. L. Martin, K. Morokuma, O. Farkas, 
 J. B. Foresman, and D. J. Fox, Gaussian, Inc., Wallingford CT, 2019.
 
 ******************************************
 Gaussian 16:  ES64L-G16RevC.01  3-Jul-2019
                24-Aug-2025 
 ******************************************
 %mem=56GB
 %nprocshared=24
 Will use up to   24 processors via shared memory.
 %chk=molecule.chk
 ---------------------------------------------------
 #p opt=modredundant freq Ub3lyp/6-31g(d,p) em=gd3bj
 ---------------------------------------------------
 1/18=120,19=15,26=3,38=1/1,3;
 2/9=110,12=2,17=6,18=5,40=1/2;
 3/5=1,6=6,7=101,11=2,25=1,30=1,71=1,74=-5,116=2,124=41/1,2,3;
 4//1;
 5/5=2,38=5/2;
 6/7=2,8=2,9=2,10=2,28=1/1;
 7//1,2,3,16;
 1/18=20,19=15,26=3/3(2);
 2/9=110/2;
 99//99;
 2/9=110/2;
 3/5=1,6=6,7=101,11=2,25=1,30=1,71=1,74=-5,116=2,124=41/1,2,3;
 4/5=5,16=3,69=1/1;
 5/5=2,38=5/2;
 7//1,2,3,16;
 1/18=20,19=15,26=3/3(-5);
 2/9=110/2;
 6/7=2,8=2,9=2,10=2,19=2,28=1/1;
 99/9=1/99;
 Leave Link    1 at Sun Aug 24 20:14:06 2025, MaxMem=  7516192768 cpu:               1.7 elap:               0.2
 (Enter /share/apps/softwares/gaussian/16/g16/l101.exe)
 --------
 molecule
 --------
 Symbolic Z-matrix:
 Charge =  0 Multiplicity = 2
 C                    -0.58014   0.01552  -0.01121 
 C                    -1.3036    0.02895  -1.21555 
 C                    -2.69443   0.03181  -1.21783 
 C                    -3.41715   0.02314  -0.01673 
 C                    -2.69916   0.01061   1.18717 
 C                    -1.30834   0.00599   1.19031 
 C                     0.89626   0.01155  -0.00834 
 C                     1.62682  -0.65192  -1.01128 
 C                     3.01218  -0.65482  -1.01292 
 C                     3.7544    0.00389  -0.00279 
 C                     3.01181   0.66656   1.00446 
 C                     1.62647   0.67109   0.99744 
 H                    -0.76849   0.06226  -2.15906 
 H                    -3.23497   0.0482   -2.15907 
 H                    -3.24344  -0.00286   2.12631 
 H                    -0.77709  -0.03018   2.13589 
 H                     1.09519  -1.20634  -1.77814 
 H                     1.09485   1.22837   1.76225 
 C                     5.20759  0.         0.00002 
 C                     5.9464    1.05459  -0.6906 
 C                     6.31647   0.91979  -2.04825 
 C                     6.32147   2.24509  -0.02706 
 C                     7.01758   1.92393  -2.70561 
 C                     7.02668   3.24473  -0.68713 
 H                     6.07098   2.36389   1.02118 
 C                     7.37833   3.09294  -2.03072 
 H                     7.27707   1.79883  -3.75267 
 C                     5.93808  -1.05851   0.69346 
 C                     6.30935  -2.251     0.03134 
 C                     6.30363  -0.92571   2.05254 
 C                     7.00666  -3.25439   0.69408 
 C                     6.99684  -1.93358   2.71256 
 C                     7.35396  -3.10449   2.03902 
 H                     7.29005  -4.1545    0.15667 
 H                     7.25296  -1.80987   3.76061 
 H                     7.9276    3.87529  -2.54507 
 H                     6.02697   0.02332  -2.58507 
 H                     7.3128    4.14334  -0.14863 
 H                     7.89706  -3.88975   2.55546 
 H                     6.06224  -2.36845  -1.01786 
 H                     6.01684  -0.02772   2.58828 
 H                     3.54288   1.21085   1.77705 
 H                     3.54332  -1.20198  -1.78343 
 C                    -5.61359  -1.12685   0.38691 
 C                    -5.6058    1.18491  -0.42889 
 C                    -4.95403  -2.33441   0.78035 
 C                    -7.05773  -1.11432   0.38908 
 C                    -7.04996   1.18015  -0.43668 
 C                    -4.93823   2.38892  -0.81975 
 C                    -5.66653  -3.43677   1.1714 
 H                    -3.87138  -2.36668   0.75912 
 C                    -7.76156  -2.28506   0.8078 
 C                    -7.74586   2.35464  -0.85811 
 H                    -3.85552   2.41537  -0.79431 
 C                    -5.64328   3.49508  -1.21355 
 C                    -7.08979  -3.41309   1.19232 
 H                    -5.14345  -4.34205   1.46399 
 H                    -8.84769  -2.25801   0.81012 
 C                    -7.06655   3.47904  -1.24001 
 H                    -8.8321    2.33342  -0.86466 
 H                    -5.11421   4.39753  -1.5041 
 H                    -7.63697  -4.29613   1.50757 
 H                    -7.60776   4.36501  -1.55737 
 C                    -4.90642   0.02714  -0.01962 
 C                    -7.73552   0.03474  -0.02512 
 H                    -8.82262   0.03766  -0.02724 
 
 The following ModRedundant input section has been read:
 D      10      19      20      21 F                                           
 D      10      19      28      30 F                                           
 D      11      10      19      20 F                                           
 
 ITRead=  0  0  0  0  0  0  0  0  0  0  0  0  0  0  0  0  0  0  0  0
 ITRead=  0  0  0  0  0  0  0  0  0  0  0  0  0  0  0  0  0  0  0  0
 ITRead=  0  0  0  0  0  0  0  0  0  0  0  0  0  0  0  0  0  0  0  0
 ITRead=  0  0  0  0  0  0
 MicOpt= -1 -1 -1 -1 -1 -1 -1 -1 -1 -1 -1 -1 -1 -1 -1 -1 -1 -1 -1 -1
 MicOpt= -1 -1 -1 -1 -1 -1 -1 -1 -1 -1 -1 -1 -1 -1 -1 -1 -1 -1 -1 -1
 MicOpt= -1 -1 -1 -1 -1 -1 -1 -1 -1 -1 -1 -1 -1 -1 -1 -1 -1 -1 -1 -1
 MicOpt= -1 -1 -1 -1 -1 -1
 NAtoms=     66 NQM=       66 NQMF=       0 NMMI=      0 NMMIF=      0
                NMic=       0 NMicF=      0.
                    Isotopes and Nuclear Properties:
 (Nuclear quadrupole moments (NQMom) in fm**2, nuclear magnetic moments (NMagM)
  in nuclear magnetons)

  Atom         1           2           3           4           5           6           7           8           9          10
 IAtWgt=          12          12          12          12          12          12          12          12          12          12
 AtmWgt=  12.0000000  12.0000000  12.0000000  12.0000000  12.0000000  12.0000000  12.0000000  12.0000000  12.0000000  12.0000000
 NucSpn=           0           0           0           0           0           0           0           0           0           0
 AtZEff=  -0.0000000  -0.0000000  -0.0000000  -0.0000000  -0.0000000  -0.0000000  -0.0000000  -0.0000000  -0.0000000  -0.0000000
 NQMom=    0.0000000   0.0000000   0.0000000   0.0000000   0.0000000   0.0000000   0.0000000   0.0000000   0.0000000   0.0000000
 NMagM=    0.0000000   0.0000000   0.0000000   0.0000000   0.0000000   0.0000000   0.0000000   0.0000000   0.0000000   0.0000000
 AtZNuc=   6.0000000   6.0000000   6.0000000   6.0000000   6.0000000   6.0000000   6.0000000   6.0000000   6.0000000   6.0000000

  Atom        11          12          13          14          15          16          17          18          19          20
 IAtWgt=          12          12           1           1           1           1           1           1          12          12
 AtmWgt=  12.0000000  12.0000000   1.0078250   1.0078250   1.0078250   1.0078250   1.0078250   1.0078250  12.0000000  12.0000000
 NucSpn=           0           0           1           1           1           1           1           1           0           0
 AtZEff=  -0.0000000  -0.0000000  -0.0000000  -0.0000000  -0.0000000  -0.0000000  -0.0000000  -0.0000000  -0.0000000  -0.0000000
 NQMom=    0.0000000   0.0000000   0.0000000   0.0000000   0.0000000   0.0000000   0.0000000   0.0000000   0.0000000   0.0000000
 NMagM=    0.0000000   0.0000000   2.7928460   2.7928460   2.7928460   2.7928460   2.7928460   2.7928460   0.0000000   0.0000000
 AtZNuc=   6.0000000   6.0000000   1.0000000   1.0000000   1.0000000   1.0000000   1.0000000   1.0000000   6.0000000   6.0000000

  Atom        21          22          23          24          25          26          27          28          29          30
 IAtWgt=          12          12          12          12           1          12           1          12          12          12
 AtmWgt=  12.0000000  12.0000000  12.0000000  12.0000000   1.0078250  12.0000000   1.0078250  12.0000000  12.0000000  12.0000000
 NucSpn=           0           0           0           0           1           0           1           0           0           0
 AtZEff=  -0.0000000  -0.0000000  -0.0000000  -0.0000000  -0.0000000  -0.0000000  -0.0000000  -0.0000000  -0.0000000  -0.0000000
 NQMom=    0.0000000   0.0000000   0.0000000   0.0000000   0.0000000   0.0000000   0.0000000   0.0000000   0.0000000   0.0000000
 NMagM=    0.0000000   0.0000000   0.0000000   0.0000000   2.7928460   0.0000000   2.7928460   0.0000000   0.0000000   0.0000000
 AtZNuc=   6.0000000   6.0000000   6.0000000   6.0000000   1.0000000   6.0000000   1.0000000   6.0000000   6.0000000   6.0000000

  Atom        31          32          33          34          35          36          37          38          39          40
 IAtWgt=          12          12          12           1           1           1           1           1           1           1
 AtmWgt=  12.0000000  12.0000000  12.0000000   1.0078250   1.0078250   1.0078250   1.0078250   1.0078250   1.0078250   1.0078250
 NucSpn=           0           0           0           1           1           1           1           1           1           1
 AtZEff=  -0.0000000  -0.0000000  -0.0000000  -0.0000000  -0.0000000  -0.0000000  -0.0000000  -0.0000000  -0.0000000  -0.0000000
 NQMom=    0.0000000   0.0000000   0.0000000   0.0000000   0.0000000   0.0000000   0.0000000   0.0000000   0.0000000   0.0000000
 NMagM=    0.0000000   0.0000000   0.0000000   2.7928460   2.7928460   2.7928460   2.7928460   2.7928460   2.7928460   2.7928460
 AtZNuc=   6.0000000   6.0000000   6.0000000   1.0000000   1.0000000   1.0000000   1.0000000   1.0000000   1.0000000   1.0000000

  Atom        41          42          43          44          45          46          47          48          49          50
 IAtWgt=           1           1           1          12          12          12          12          12          12          12
 AtmWgt=   1.0078250   1.0078250   1.0078250  12.0000000  12.0000000  12.0000000  12.0000000  12.0000000  12.0000000  12.0000000
 NucSpn=           1           1           1           0           0           0           0           0           0           0
 AtZEff=  -0.0000000  -0.0000000  -0.0000000  -0.0000000  -0.0000000  -0.0000000  -0.0000000  -0.0000000  -0.0000000  -0.0000000
 NQMom=    0.0000000   0.0000000   0.0000000   0.0000000   0.0000000   0.0000000   0.0000000   0.0000000   0.0000000   0.0000000
 NMagM=    2.7928460   2.7928460   2.7928460   0.0000000   0.0000000   0.0000000   0.0000000   0.0000000   0.0000000   0.0000000
 AtZNuc=   1.0000000   1.0000000   1.0000000   6.0000000   6.0000000   6.0000000   6.0000000   6.0000000   6.0000000   6.0000000

  Atom        51          52          53          54          55          56          57          58          59          60
 IAtWgt=           1          12          12           1          12          12           1           1          12           1
 AtmWgt=   1.0078250  12.0000000  12.0000000   1.0078250  12.0000000  12.0000000   1.0078250   1.0078250  12.0000000   1.0078250
 NucSpn=           1           0           0           1           0           0           1           1           0           1
 AtZEff=  -0.0000000  -0.0000000  -0.0000000  -0.0000000  -0.0000000  -0.0000000  -0.0000000  -0.0000000  -0.0000000  -0.0000000
 NQMom=    0.0000000   0.0000000   0.0000000   0.0000000   0.0000000   0.0000000   0.0000000   0.0000000   0.0000000   0.0000000
 NMagM=    2.7928460   0.0000000   0.0000000   2.7928460   0.0000000   0.0000000   2.7928460   2.7928460   0.0000000   2.7928460
 AtZNuc=   1.0000000   6.0000000   6.0000000   1.0000000   6.0000000   6.0000000   1.0000000   1.0000000   6.0000000   1.0000000

  Atom        61          62          63          64          65          66
 IAtWgt=           1           1           1          12          12           1
 AtmWgt=   1.0078250   1.0078250   1.0078250  12.0000000  12.0000000   1.0078250
 NucSpn=           1           1           1           0           0           1
 AtZEff=  -0.0000000  -0.0000000  -0.0000000  -0.0000000  -0.0000000  -0.0000000
 NQMom=    0.0000000   0.0000000   0.0000000   0.0000000   0.0000000   0.0000000
 NMagM=    2.7928460   2.7928460   2.7928460   0.0000000   0.0000000   2.7928460
 AtZNuc=   1.0000000   1.0000000   1.0000000   6.0000000   6.0000000   1.0000000
 Leave Link  101 at Sun Aug 24 20:14:08 2025, MaxMem=  7516192768 cpu:               9.9 elap:               0.5
 (Enter /share/apps/softwares/gaussian/16/g16/l103.exe)

 GradGradGradGradGradGradGradGradGradGradGradGradGradGradGradGradGradGrad
 Berny optimization.
 Initialization pass.
                           ----------------------------
                           !    Initial Parameters    !
                           ! (Angstroms and Degrees)  !
 --------------------------                            --------------------------
 ! Name  Definition              Value          Derivative Info.                !
 --------------------------------------------------------------------------------
 ! R1    R(1,2)                  1.405          estimate D2E/DX2                !
 ! R2    R(1,6)                  1.405          estimate D2E/DX2                !
 ! R3    R(1,7)                  1.4764         estimate D2E/DX2                !
 ! R4    R(2,3)                  1.3908         estimate D2E/DX2                !
 ! R5    R(2,13)                 1.0852         estimate D2E/DX2                !
 ! R6    R(3,4)                  1.4018         estimate D2E/DX2                !
 ! R7    R(3,14)                 1.0855         estimate D2E/DX2                !
 ! R8    R(4,5)                  1.4018         estimate D2E/DX2                !
 ! R9    R(4,64)                 1.4893         estimate D2E/DX2                !
 ! R10   R(5,6)                  1.3908         estimate D2E/DX2                !
 ! R11   R(5,15)                 1.0855         estimate D2E/DX2                !
 ! R12   R(6,16)                 1.0852         estimate D2E/DX2                !
 ! R13   R(7,8)                  1.407          estimate D2E/DX2                !
 ! R14   R(7,12)                 1.407          estimate D2E/DX2                !
 ! R15   R(8,9)                  1.3854         estimate D2E/DX2                !
 ! R16   R(8,17)                 1.0854         estimate D2E/DX2                !
 ! R17   R(9,10)                 1.416          estimate D2E/DX2                !
 ! R18   R(9,43)                 1.0841         estimate D2E/DX2                !
 ! R19   R(10,11)                1.416          estimate D2E/DX2                !
 ! R20   R(10,19)                1.4532         estimate D2E/DX2                !
 ! R21   R(11,12)                1.3854         estimate D2E/DX2                !
 ! R22   R(11,42)                1.0841         estimate D2E/DX2                !
 ! R23   R(12,18)                1.0854         estimate D2E/DX2                !
 ! R24   R(19,20)                1.4612         estimate D2E/DX2                !
 ! R25   R(19,28)                1.4611         estimate D2E/DX2                !
 ! R26   R(20,21)                1.4136         estimate D2E/DX2                !
 ! R27   R(20,22)                1.4136         estimate D2E/DX2                !
 ! R28   R(21,23)                1.39           estimate D2E/DX2                !
 ! R29   R(21,37)                1.0843         estimate D2E/DX2                !
 ! R30   R(22,24)                1.3901         estimate D2E/DX2                !
 ! R31   R(22,25)                1.0843         estimate D2E/DX2                !
 ! R32   R(23,26)                1.3972         estimate D2E/DX2                !
 ! R33   R(23,27)                1.086          estimate D2E/DX2                !
 ! R34   R(24,26)                1.3971         estimate D2E/DX2                !
 ! R35   R(24,38)                1.086          estimate D2E/DX2                !
 ! R36   R(26,36)                1.0855         estimate D2E/DX2                !
 ! R37   R(28,29)                1.4136         estimate D2E/DX2                !
 ! R38   R(28,30)                1.4136         estimate D2E/DX2                !
 ! R39   R(29,31)                1.3901         estimate D2E/DX2                !
 ! R40   R(29,40)                1.0843         estimate D2E/DX2                !
 ! R41   R(30,32)                1.39           estimate D2E/DX2                !
 ! R42   R(30,41)                1.0843         estimate D2E/DX2                !
 ! R43   R(31,33)                1.3971         estimate D2E/DX2                !
 ! R44   R(31,34)                1.086          estimate D2E/DX2                !
 ! R45   R(32,33)                1.3972         estimate D2E/DX2                !
 ! R46   R(32,35)                1.086          estimate D2E/DX2                !
 ! R47   R(33,39)                1.0855         estimate D2E/DX2                !
 ! R48   R(44,46)                1.4311         estimate D2E/DX2                !
 ! R49   R(44,47)                1.4442         estimate D2E/DX2                !
 ! R50   R(44,64)                1.4132         estimate D2E/DX2                !
 ! R51   R(45,48)                1.4442         estimate D2E/DX2                !
 ! R52   R(45,49)                1.4311         estimate D2E/DX2                !
 ! R53   R(45,64)                1.4132         estimate D2E/DX2                !
 ! R54   R(46,50)                1.3696         estimate D2E/DX2                !
 ! R55   R(46,51)                1.0833         estimate D2E/DX2                !
 ! R56   R(47,52)                1.4288         estimate D2E/DX2                !
 ! R57   R(47,65)                1.3969         estimate D2E/DX2                !
 ! R58   R(48,53)                1.4288         estimate D2E/DX2                !
 ! R59   R(48,65)                1.3969         estimate D2E/DX2                !
 ! R60   R(49,54)                1.0833         estimate D2E/DX2                !
 ! R61   R(49,55)                1.3696         estimate D2E/DX2                !
 ! R62   R(50,56)                1.4236         estimate D2E/DX2                !
 ! R63   R(50,57)                1.0857         estimate D2E/DX2                !
 ! R64   R(52,56)                1.3681         estimate D2E/DX2                !
 ! R65   R(52,58)                1.0865         estimate D2E/DX2                !
 ! R66   R(53,59)                1.3681         estimate D2E/DX2                !
 ! R67   R(53,60)                1.0865         estimate D2E/DX2                !
 ! R68   R(55,59)                1.4236         estimate D2E/DX2                !
 ! R69   R(55,61)                1.0857         estimate D2E/DX2                !
 ! R70   R(56,62)                1.0856         estimate D2E/DX2                !
 ! R71   R(59,63)                1.0856         estimate D2E/DX2                !
 ! R72   R(65,66)                1.0871         estimate D2E/DX2                !
 ! A1    A(2,1,6)              117.7898         estimate D2E/DX2                !
 ! A2    A(2,1,7)              121.1051         estimate D2E/DX2                !
 ! A3    A(6,1,7)              121.1051         estimate D2E/DX2                !
 ! A4    A(1,2,3)              121.0871         estimate D2E/DX2                !
 ! A5    A(1,2,13)             119.449          estimate D2E/DX2                !
 ! A6    A(3,2,13)             119.4467         estimate D2E/DX2                !
 ! A7    A(2,3,4)              120.9407         estimate D2E/DX2                !
 ! A8    A(2,3,14)             119.9598         estimate D2E/DX2                !
 ! A9    A(4,3,14)             119.098          estimate D2E/DX2                !
 ! A10   A(3,4,5)              118.1546         estimate D2E/DX2                !
 ! A11   A(3,4,64)             120.9228         estimate D2E/DX2                !
 ! A12   A(5,4,64)             120.9227         estimate D2E/DX2                !
 ! A13   A(4,5,6)              120.9406         estimate D2E/DX2                !
 ! A14   A(4,5,15)             119.0981         estimate D2E/DX2                !
 ! A15   A(6,5,15)             119.9598         estimate D2E/DX2                !
 ! A16   A(1,6,5)              121.0871         estimate D2E/DX2                !
 ! A17   A(1,6,16)             119.449          estimate D2E/DX2                !
 ! A18   A(5,6,16)             119.4466         estimate D2E/DX2                !
 ! A19   A(1,7,8)              121.271          estimate D2E/DX2                !
 ! A20   A(1,7,12)             121.2711         estimate D2E/DX2                !
 ! A21   A(8,7,12)             117.4579         estimate D2E/DX2                !
 ! A22   A(7,8,9)              121.4019         estimate D2E/DX2                !
 ! A23   A(7,8,17)             119.3511         estimate D2E/DX2                !
 ! A24   A(9,8,17)             119.2021         estimate D2E/DX2                !
 ! A25   A(8,9,10)             121.4892         estimate D2E/DX2                !
 ! A26   A(8,9,43)             119.4623         estimate D2E/DX2                !
 ! A27   A(10,9,43)            119.0127         estimate D2E/DX2                !
 ! A28   A(9,10,11)            116.7589         estimate D2E/DX2                !
 ! A29   A(9,10,19)            121.6205         estimate D2E/DX2                !
 ! A30   A(11,10,19)           121.6205         estimate D2E/DX2                !
 ! A31   A(10,11,12)           121.4893         estimate D2E/DX2                !
 ! A32   A(10,11,42)           119.0125         estimate D2E/DX2                !
 ! A33   A(12,11,42)           119.4625         estimate D2E/DX2                !
 ! A34   A(7,12,11)            121.4018         estimate D2E/DX2                !
 ! A35   A(7,12,18)            119.3512         estimate D2E/DX2                !
 ! A36   A(11,12,18)           119.2022         estimate D2E/DX2                !
 ! A37   A(10,19,20)           120.1844         estimate D2E/DX2                !
 ! A38   A(10,19,28)           120.1856         estimate D2E/DX2                !
 ! A39   A(20,19,28)           119.6299         estimate D2E/DX2                !
 ! A40   A(19,20,21)           121.1637         estimate D2E/DX2                !
 ! A41   A(19,20,22)           121.3419         estimate D2E/DX2                !
 ! A42   A(21,20,22)           117.4942         estimate D2E/DX2                !
 ! A43   A(20,21,23)           121.1558         estimate D2E/DX2                !
 ! A44   A(20,21,37)           118.9753         estimate D2E/DX2                !
 ! A45   A(23,21,37)           119.8568         estimate D2E/DX2                !
 ! A46   A(20,22,24)           121.155          estimate D2E/DX2                !
 ! A47   A(20,22,25)           118.9973         estimate D2E/DX2                !
 ! A48   A(24,22,25)           119.8329         estimate D2E/DX2                !
 ! A49   A(21,23,26)           120.4133         estimate D2E/DX2                !
 ! A50   A(21,23,27)           119.5574         estimate D2E/DX2                !
 ! A51   A(26,23,27)           120.0272         estimate D2E/DX2                !
 ! A52   A(22,24,26)           120.412          estimate D2E/DX2                !
 ! A53   A(22,24,38)           119.5552         estimate D2E/DX2                !
 ! A54   A(26,24,38)           120.03           estimate D2E/DX2                !
 ! A55   A(23,26,24)           119.369          estimate D2E/DX2                !
 ! A56   A(23,26,36)           120.3167         estimate D2E/DX2                !
 ! A57   A(24,26,36)           120.3143         estimate D2E/DX2                !
 ! A58   A(19,28,29)           121.3412         estimate D2E/DX2                !
 ! A59   A(19,28,30)           121.1647         estimate D2E/DX2                !
 ! A60   A(29,28,30)           117.4939         estimate D2E/DX2                !
 ! A61   A(28,29,31)           121.1551         estimate D2E/DX2                !
 ! A62   A(28,29,40)           118.9969         estimate D2E/DX2                !
 ! A63   A(31,29,40)           119.8332         estimate D2E/DX2                !
 ! A64   A(28,30,32)           121.1558         estimate D2E/DX2                !
 ! A65   A(28,30,41)           118.9754         estimate D2E/DX2                !
 ! A66   A(32,30,41)           119.8566         estimate D2E/DX2                !
 ! A67   A(29,31,33)           120.4121         estimate D2E/DX2                !
 ! A68   A(29,31,34)           119.5551         estimate D2E/DX2                !
 ! A69   A(33,31,34)           120.0299         estimate D2E/DX2                !
 ! A70   A(30,32,33)           120.4135         estimate D2E/DX2                !
 ! A71   A(30,32,35)           119.5572         estimate D2E/DX2                !
 ! A72   A(33,32,35)           120.0271         estimate D2E/DX2                !
 ! A73   A(31,33,32)           119.3689         estimate D2E/DX2                !
 ! A74   A(31,33,39)           120.3144         estimate D2E/DX2                !
 ! A75   A(32,33,39)           120.3167         estimate D2E/DX2                !
 ! A76   A(46,44,47)           117.8892         estimate D2E/DX2                !
 ! A77   A(46,44,64)           122.5141         estimate D2E/DX2                !
 ! A78   A(47,44,64)           119.5871         estimate D2E/DX2                !
 ! A79   A(48,45,49)           117.8892         estimate D2E/DX2                !
 ! A80   A(48,45,64)           119.5872         estimate D2E/DX2                !
 ! A81   A(49,45,64)           122.514          estimate D2E/DX2                !
 ! A82   A(44,46,50)           121.1915         estimate D2E/DX2                !
 ! A83   A(44,46,51)           118.7073         estimate D2E/DX2                !
 ! A84   A(50,46,51)           120.1004         estimate D2E/DX2                !
 ! A85   A(44,47,52)           119.0741         estimate D2E/DX2                !
 ! A86   A(44,47,65)           119.4642         estimate D2E/DX2                !
 ! A87   A(52,47,65)           121.4603         estimate D2E/DX2                !
 ! A88   A(45,48,53)           119.0741         estimate D2E/DX2                !
 ! A89   A(45,48,65)           119.4642         estimate D2E/DX2                !
 ! A90   A(53,48,65)           121.4603         estimate D2E/DX2                !
 ! A91   A(45,49,54)           118.7072         estimate D2E/DX2                !
 ! A92   A(45,49,55)           121.1915         estimate D2E/DX2                !
 ! A93   A(54,49,55)           120.1004         estimate D2E/DX2                !
 ! A94   A(46,50,56)           120.7242         estimate D2E/DX2                !
 ! A95   A(46,50,57)           119.8304         estimate D2E/DX2                !
 ! A96   A(56,50,57)           119.4445         estimate D2E/DX2                !
 ! A97   A(47,52,56)           121.0721         estimate D2E/DX2                !
 ! A98   A(47,52,58)           118.2094         estimate D2E/DX2                !
 ! A99   A(56,52,58)           120.7182         estimate D2E/DX2                !
 ! A100  A(48,53,59)           121.0721         estimate D2E/DX2                !
 ! A101  A(48,53,60)           118.2093         estimate D2E/DX2                !
 ! A102  A(59,53,60)           120.7183         estimate D2E/DX2                !
 ! A103  A(49,55,59)           120.7243         estimate D2E/DX2                !
 ! A104  A(49,55,61)           119.8304         estimate D2E/DX2                !
 ! A105  A(59,55,61)           119.4445         estimate D2E/DX2                !
 ! A106  A(50,56,52)           120.0335         estimate D2E/DX2                !
 ! A107  A(50,56,62)           119.6462         estimate D2E/DX2                !
 ! A108  A(52,56,62)           120.3187         estimate D2E/DX2                !
 ! A109  A(53,59,55)           120.0335         estimate D2E/DX2                !
 ! A110  A(53,59,63)           120.3187         estimate D2E/DX2                !
 ! A111  A(55,59,63)           119.6462         estimate D2E/DX2                !
 ! A112  A(4,64,44)            119.8452         estimate D2E/DX2                !
 ! A113  A(4,64,45)            119.8453         estimate D2E/DX2                !
 ! A114  A(44,64,45)           120.3094         estimate D2E/DX2                !
 ! A115  A(47,65,48)           121.5823         estimate D2E/DX2                !
 ! A116  A(47,65,66)           119.2088         estimate D2E/DX2                !
 ! A117  A(48,65,66)           119.2089         estimate D2E/DX2                !
 ! D1    D(6,1,2,3)             -0.0421         estimate D2E/DX2                !
 ! D2    D(6,1,2,13)           178.4402         estimate D2E/DX2                !
 ! D3    D(7,1,2,3)            179.9579         estimate D2E/DX2                !
 ! D4    D(7,1,2,13)            -1.5599         estimate D2E/DX2                !
 ! D5    D(2,1,6,5)             -0.0421         estimate D2E/DX2                !
 ! D6    D(2,1,6,16)           178.4402         estimate D2E/DX2                !
 ! D7    D(7,1,6,5)            179.9579         estimate D2E/DX2                !
 ! D8    D(7,1,6,16)            -1.5598         estimate D2E/DX2                !
 ! D9    D(2,1,7,8)            -33.9172         estimate D2E/DX2                !
 ! D10   D(2,1,7,12)           146.083          estimate D2E/DX2                !
 ! D11   D(6,1,7,8)            146.0827         estimate D2E/DX2                !
 ! D12   D(6,1,7,12)           -33.9171         estimate D2E/DX2                !
 ! D13   D(1,2,3,4)              0.0851         estimate D2E/DX2                !
 ! D14   D(1,2,3,14)           179.6382         estimate D2E/DX2                !
 ! D15   D(13,2,3,4)          -178.3972         estimate D2E/DX2                !
 ! D16   D(13,2,3,14)            1.156          estimate D2E/DX2                !
 ! D17   D(2,3,4,5)             -0.0421         estimate D2E/DX2                !
 ! D18   D(2,3,4,64)           179.958          estimate D2E/DX2                !
 ! D19   D(14,3,4,5)          -179.5991         estimate D2E/DX2                !
 ! D20   D(14,3,4,64)            0.4011         estimate D2E/DX2                !
 ! D21   D(3,4,5,6)             -0.042          estimate D2E/DX2                !
 ! D22   D(3,4,5,15)          -179.599          estimate D2E/DX2                !
 ! D23   D(64,4,5,6)           179.9579         estimate D2E/DX2                !
 ! D24   D(64,4,5,15)            0.4009         estimate D2E/DX2                !
 ! D25   D(3,4,64,44)          109.9427         estimate D2E/DX2                !
 ! D26   D(3,4,64,45)          -70.0572         estimate D2E/DX2                !
 ! D27   D(5,4,64,44)          -70.0571         estimate D2E/DX2                !
 ! D28   D(5,4,64,45)          109.9429         estimate D2E/DX2                !
 ! D29   D(4,5,6,1)              0.085          estimate D2E/DX2                !
 ! D30   D(4,5,6,16)          -178.3973         estimate D2E/DX2                !
 ! D31   D(15,5,6,1)           179.6382         estimate D2E/DX2                !
 ! D32   D(15,5,6,16)            1.1559         estimate D2E/DX2                !
 ! D33   D(1,7,8,9)            179.8515         estimate D2E/DX2                !
 ! D34   D(1,7,8,17)            -2.6033         estimate D2E/DX2                !
 ! D35   D(12,7,8,9)            -0.1487         estimate D2E/DX2                !
 ! D36   D(12,7,8,17)          177.3965         estimate D2E/DX2                !
 ! D37   D(1,7,12,11)          179.8522         estimate D2E/DX2                !
 ! D38   D(1,7,12,18)           -2.6027         estimate D2E/DX2                !
 ! D39   D(8,7,12,11)           -0.1477         estimate D2E/DX2                !
 ! D40   D(8,7,12,18)          177.3975         estimate D2E/DX2                !
 ! D41   D(7,8,9,10)             0.2997         estimate D2E/DX2                !
 ! D42   D(7,8,9,43)           178.101          estimate D2E/DX2                !
 ! D43   D(17,8,9,10)         -177.2491         estimate D2E/DX2                !
 ! D44   D(17,8,9,43)            0.5522         estimate D2E/DX2                !
 ! D45   D(8,9,10,11)           -0.1472         estimate D2E/DX2                !
 ! D46   D(8,9,10,19)          179.8526         estimate D2E/DX2                !
 ! D47   D(43,9,10,11)        -177.9582         estimate D2E/DX2                !
 ! D48   D(43,9,10,19)           2.0416         estimate D2E/DX2                !
 ! D49   D(9,10,11,12)          -0.1487         estimate D2E/DX2                !
 ! D50   D(9,10,11,42)        -177.9606         estimate D2E/DX2                !
 ! D51   D(19,10,11,12)        179.8516         estimate D2E/DX2                !
 ! D52   D(19,10,11,42)          2.0396         estimate D2E/DX2                !
 ! D53   D(9,10,19,20)          90.0002         estimate D2E/DX2                !
 ! D54   D(9,10,19,28)         -89.9992         estimate D2E/DX2                !
 ! D55   D(11,10,19,20)        -90.0            Frozen                          !
 ! D56   D(11,10,19,28)         90.0005         estimate D2E/DX2                !
 ! D57   D(10,11,12,7)           0.2999         estimate D2E/DX2                !
 ! D58   D(10,11,12,18)       -177.2488         estimate D2E/DX2                !
 ! D59   D(42,11,12,7)         178.1022         estimate D2E/DX2                !
 ! D60   D(42,11,12,18)          0.5535         estimate D2E/DX2                !
 ! D61   D(10,19,20,21)        -90.0            Frozen                          !
 ! D62   D(10,19,20,22)         90.1912         estimate D2E/DX2                !
 ! D63   D(28,19,20,21)         89.9995         estimate D2E/DX2                !
 ! D64   D(28,19,20,22)        -89.8093         estimate D2E/DX2                !
 ! D65   D(10,19,28,29)         90.1913         estimate D2E/DX2                !
 ! D66   D(10,19,28,30)        -90.0            Frozen                          !
 ! D67   D(20,19,28,29)        -89.8082         estimate D2E/DX2                !
 ! D68   D(20,19,28,30)         90.0005         estimate D2E/DX2                !
 ! D69   D(19,20,21,23)        179.9049         estimate D2E/DX2                !
 ! D70   D(19,20,21,37)          1.1737         estimate D2E/DX2                !
 ! D71   D(22,20,21,23)         -0.2792         estimate D2E/DX2                !
 ! D72   D(22,20,21,37)       -179.0104         estimate D2E/DX2                !
 ! D73   D(19,20,22,24)        179.8684         estimate D2E/DX2                !
 ! D74   D(19,20,22,25)          1.271          estimate D2E/DX2                !
 ! D75   D(21,20,22,24)          0.0529         estimate D2E/DX2                !
 ! D76   D(21,20,22,25)       -178.5445         estimate D2E/DX2                !
 ! D77   D(20,21,23,26)          0.2828         estimate D2E/DX2                !
 ! D78   D(20,21,23,27)       -179.1828         estimate D2E/DX2                !
 ! D79   D(37,21,23,26)        179.003          estimate D2E/DX2                !
 ! D80   D(37,21,23,27)         -0.4626         estimate D2E/DX2                !
 ! D81   D(20,22,24,26)          0.1713         estimate D2E/DX2                !
 ! D82   D(20,22,24,38)       -179.2118         estimate D2E/DX2                !
 ! D83   D(25,22,24,26)        178.7572         estimate D2E/DX2                !
 ! D84   D(25,22,24,38)         -0.6259         estimate D2E/DX2                !
 ! D85   D(21,23,26,24)         -0.0523         estimate D2E/DX2                !
 ! D86   D(21,23,26,36)        179.8772         estimate D2E/DX2                !
 ! D87   D(27,23,26,24)        179.4108         estimate D2E/DX2                !
 ! D88   D(27,23,26,36)         -0.6598         estimate D2E/DX2                !
 ! D89   D(22,24,26,23)         -0.1727         estimate D2E/DX2                !
 ! D90   D(22,24,26,36)        179.8978         estimate D2E/DX2                !
 ! D91   D(38,24,26,23)        179.2075         estimate D2E/DX2                !
 ! D92   D(38,24,26,36)         -0.722          estimate D2E/DX2                !
 ! D93   D(19,28,29,31)        179.8678         estimate D2E/DX2                !
 ! D94   D(19,28,29,40)          1.2689         estimate D2E/DX2                !
 ! D95   D(30,28,29,31)          0.0523         estimate D2E/DX2                !
 ! D96   D(30,28,29,40)       -178.5466         estimate D2E/DX2                !
 ! D97   D(19,28,30,32)        179.9061         estimate D2E/DX2                !
 ! D98   D(19,28,30,41)          1.1749         estimate D2E/DX2                !
 ! D99   D(29,28,30,32)         -0.2781         estimate D2E/DX2                !
 ! D100  D(29,28,30,41)       -179.0093         estimate D2E/DX2                !
 ! D101  D(28,29,31,33)          0.1709         estimate D2E/DX2                !
 ! D102  D(28,29,31,34)       -179.212          estimate D2E/DX2                !
 ! D103  D(40,29,31,33)        178.7583         estimate D2E/DX2                !
 ! D104  D(40,29,31,34)         -0.6247         estimate D2E/DX2                !
 ! D105  D(28,30,32,33)          0.2822         estimate D2E/DX2                !
 ! D106  D(28,30,32,35)       -179.1832         estimate D2E/DX2                !
 ! D107  D(41,30,32,33)        179.0023         estimate D2E/DX2                !
 ! D108  D(41,30,32,35)         -0.4631         estimate D2E/DX2                !
 ! D109  D(29,31,33,32)         -0.1718         estimate D2E/DX2                !
 ! D110  D(29,31,33,39)        179.8983         estimate D2E/DX2                !
 ! D111  D(34,31,33,32)        179.2082         estimate D2E/DX2                !
 ! D112  D(34,31,33,39)         -0.7218         estimate D2E/DX2                !
 ! D113  D(30,32,33,31)         -0.0527         estimate D2E/DX2                !
 ! D114  D(30,32,33,39)        179.8773         estimate D2E/DX2                !
 ! D115  D(35,32,33,31)        179.4102         estimate D2E/DX2                !
 ! D116  D(35,32,33,39)         -0.6599         estimate D2E/DX2                !
 ! D117  D(47,44,46,50)         -1.216          estimate D2E/DX2                !
 ! D118  D(47,44,46,51)        178.4469         estimate D2E/DX2                !
 ! D119  D(64,44,46,50)        179.9138         estimate D2E/DX2                !
 ! D120  D(64,44,46,51)         -0.4233         estimate D2E/DX2                !
 ! D121  D(46,44,47,52)          1.3704         estimate D2E/DX2                !
 ! D122  D(46,44,47,65)       -178.2072         estimate D2E/DX2                !
 ! D123  D(64,44,47,52)       -179.7252         estimate D2E/DX2                !
 ! D124  D(64,44,47,65)          0.6973         estimate D2E/DX2                !
 ! D125  D(46,44,64,4)          -1.4939         estimate D2E/DX2                !
 ! D126  D(46,44,64,45)        178.5061         estimate D2E/DX2                !
 ! D127  D(47,44,64,4)         179.6544         estimate D2E/DX2                !
 ! D128  D(47,44,64,45)         -0.3456         estimate D2E/DX2                !
 ! D129  D(49,45,48,53)          1.3704         estimate D2E/DX2                !
 ! D130  D(49,45,48,65)       -178.2072         estimate D2E/DX2                !
 ! D131  D(64,45,48,53)       -179.7252         estimate D2E/DX2                !
 ! D132  D(64,45,48,65)          0.6972         estimate D2E/DX2                !
 ! D133  D(48,45,49,54)        178.4469         estimate D2E/DX2                !
 ! D134  D(48,45,49,55)         -1.216          estimate D2E/DX2                !
 ! D135  D(64,45,49,54)         -0.4232         estimate D2E/DX2                !
 ! D136  D(64,45,49,55)        179.9138         estimate D2E/DX2                !
 ! D137  D(48,45,64,4)         179.6544         estimate D2E/DX2                !
 ! D138  D(48,45,64,44)         -0.3455         estimate D2E/DX2                !
 ! D139  D(49,45,64,4)          -1.4939         estimate D2E/DX2                !
 ! D140  D(49,45,64,44)        178.5061         estimate D2E/DX2                !
 ! D141  D(44,46,50,56)          0.2467         estimate D2E/DX2                !
 ! D142  D(44,46,50,57)        179.9045         estimate D2E/DX2                !
 ! D143  D(51,46,50,56)       -179.4115         estimate D2E/DX2                !
 ! D144  D(51,46,50,57)          0.2462         estimate D2E/DX2                !
 ! D145  D(44,47,52,56)         -0.5864         estimate D2E/DX2                !
 ! D146  D(44,47,52,58)        179.6083         estimate D2E/DX2                !
 ! D147  D(65,47,52,56)        178.9824         estimate D2E/DX2                !
 ! D148  D(65,47,52,58)         -0.8229         estimate D2E/DX2                !
 ! D149  D(44,47,65,48)         -0.347          estimate D2E/DX2                !
 ! D150  D(44,47,65,66)        179.653          estimate D2E/DX2                !
 ! D151  D(52,47,65,48)       -179.9141         estimate D2E/DX2                !
 ! D152  D(52,47,65,66)          0.0859         estimate D2E/DX2                !
 ! D153  D(45,48,53,59)         -0.5864         estimate D2E/DX2                !
 ! D154  D(45,48,53,60)        179.6084         estimate D2E/DX2                !
 ! D155  D(65,48,53,59)        178.9824         estimate D2E/DX2                !
 ! D156  D(65,48,53,60)         -0.8228         estimate D2E/DX2                !
 ! D157  D(45,48,65,47)         -0.347          estimate D2E/DX2                !
 ! D158  D(45,48,65,66)        179.653          estimate D2E/DX2                !
 ! D159  D(53,48,65,47)       -179.9141         estimate D2E/DX2                !
 ! D160  D(53,48,65,66)          0.0858         estimate D2E/DX2                !
 ! D161  D(45,49,55,59)          0.2468         estimate D2E/DX2                !
 ! D162  D(45,49,55,61)        179.9045         estimate D2E/DX2                !
 ! D163  D(54,49,55,59)       -179.4116         estimate D2E/DX2                !
 ! D164  D(54,49,55,61)          0.2462         estimate D2E/DX2                !
 ! D165  D(46,50,56,52)          0.592          estimate D2E/DX2                !
 ! D166  D(46,50,56,62)       -179.8578         estimate D2E/DX2                !
 ! D167  D(57,50,56,52)       -179.0671         estimate D2E/DX2                !
 ! D168  D(57,50,56,62)          0.4831         estimate D2E/DX2                !
 ! D169  D(47,52,56,50)         -0.4064         estimate D2E/DX2                !
 ! D170  D(47,52,56,62)       -179.9535         estimate D2E/DX2                !
 ! D171  D(58,52,56,50)        179.394          estimate D2E/DX2                !
 ! D172  D(58,52,56,62)         -0.1531         estimate D2E/DX2                !
 ! D173  D(48,53,59,55)         -0.4063         estimate D2E/DX2                !
 ! D174  D(48,53,59,63)       -179.9535         estimate D2E/DX2                !
 ! D175  D(60,53,59,55)        179.394          estimate D2E/DX2                !
 ! D176  D(60,53,59,63)         -0.1531         estimate D2E/DX2                !
 ! D177  D(49,55,59,53)          0.5919         estimate D2E/DX2                !
 ! D178  D(49,55,59,63)       -179.8579         estimate D2E/DX2                !
 ! D179  D(61,55,59,53)       -179.0671         estimate D2E/DX2                !
 ! D180  D(61,55,59,63)          0.4831         estimate D2E/DX2                !
 --------------------------------------------------------------------------------
 Trust Radius=3.00D-01 FncErr=1.00D-07 GrdErr=1.00D-06 EigMax=2.50D+02 EigMin=1.00D-04
 Number of steps in this run=    379 maximum allowed number of steps=    396.
 GradGradGradGradGradGradGradGradGradGradGradGradGradGradGradGradGradGrad

 Leave Link  103 at Sun Aug 24 20:14:09 2025, MaxMem=  7516192768 cpu:               1.3 elap:               0.2
 (Enter /share/apps/softwares/gaussian/16/g16/l202.exe)
 Stoichiometry    C39H27(2)
 Framework group  C1[X(C39H27)]
 Deg. of freedom   192
 Full point group                 C1      NOp   1
 Largest Abelian subgroup         C1      NOp   1
 Largest concise Abelian subgroup C1      NOp   1
                         Standard orientation:                         
 ---------------------------------------------------------------------
 Center     Atomic      Atomic             Coordinates (Angstroms)
 Number     Number       Type             X           Y           Z
 ---------------------------------------------------------------------
      1          6           0       -0.579896   -0.000020    0.000011
      2          6           0       -1.305724    0.542846   -1.073524
      3          6           0       -2.696558    0.541874   -1.073533
      4          6           0       -3.416922   -0.000008    0.000004
      5          6           0       -2.696568   -0.541897    1.073545
      6          6           0       -1.305734   -0.542880    1.073543
      7          6           0        0.896519   -0.000027    0.000015
      8          6           0        1.626902   -0.148521   -1.193416
      9          6           0        3.012263   -0.145877   -1.196934
     10          6           0        3.754672   -0.000023    0.000016
     11          6           0        3.012259    0.145813    1.196968
     12          6           0        1.626898    0.148457    1.193449
     13          1           0       -0.772533    0.992169   -1.905077
     14          1           0       -3.238962    0.971508   -1.909954
     15          1           0       -3.238979   -0.971527    1.909964
     16          1           0       -0.772551   -0.992207    1.905099
     17          1           0        1.095273   -0.307881   -2.126198
     18          1           0        1.095269    0.307809    2.126230
     19          6           0        5.207866   -0.000012    0.000017
     20          6           0        5.942503    1.253760   -0.152748
     21          6           0        6.310302    1.735159   -1.429982
     22          6           0        6.315664    2.028689    0.969076
     23          6           0        7.007435    2.928843   -1.575235
     24          6           0        7.016903    3.219549    0.819401
     25          1           0        6.066887    1.670313    1.961720
     26          6           0        7.366357    3.679432   -0.452740
     27          1           0        7.265227    3.281069   -2.569615
     28          6           0        5.942538   -1.253740    0.152767
     29          6           0        6.315721   -2.028638   -0.969082
     30          6           0        6.310370   -1.735158    1.429989
     31          6           0        7.017013   -3.219466   -0.819439
     32          6           0        7.007565   -2.928808    1.575204
     33          6           0        7.366514   -3.679356    0.452688
     34          1           0        7.301772   -3.787707   -1.699976
     35          1           0        7.265383   -3.281043    2.569574
     36          1           0        7.912520    4.610432   -0.567878
     37          1           0        6.022165    1.168048   -2.308051
     38          1           0        7.301652    3.787817    1.699923
     39          1           0        7.912726   -4.610331    0.567802
     40          1           0        6.066892   -1.670262   -1.961713
     41          1           0        6.022206   -1.168092    2.308078
     42          1           0        3.543369    0.293540    2.130389
     43          1           0        3.543371   -0.293632   -2.130352
     44          6           0       -5.609476   -1.217024   -0.145990
     45          6           0       -5.609471    1.217020    0.145986
     46          6           0       -4.945915   -2.471820   -0.328194
     47          6           0       -7.053635   -1.211474   -0.137699
     48          6           0       -7.053629    1.211477    0.137689
     49          6           0       -4.945904    2.471814    0.328194
     50          6           0       -5.654693   -3.635709   -0.465206
     51          1           0       -3.863230   -2.487823   -0.362110
     52          6           0       -7.753513   -2.448889   -0.280181
     53          6           0       -7.753501    2.448897    0.280168
     54          1           0       -3.863218    2.487810    0.362114
     55          6           0       -5.654677    3.635705    0.465202
     56          6           0       -7.077969   -3.628384   -0.435169
     57          1           0       -5.128620   -4.575259   -0.603924
     58          1           0       -8.839701   -2.429209   -0.265523
     59          6           0       -7.077953    3.628388    0.435159
     60          1           0       -8.839690    2.429221    0.265505
     61          1           0       -5.128599    4.575253    0.603922
     62          1           0       -7.622168   -4.561521   -0.543147
     63          1           0       -7.622147    4.561527    0.543134
     64          6           0       -4.906194   -0.000003    0.000001
     65          6           0       -7.735309    0.000004   -0.000007
     66          1           0       -8.822424    0.000006   -0.000009
 ---------------------------------------------------------------------
 Rotational constants (GHZ):           0.1960838           0.0318607           0.0285364
 Leave Link  202 at Sun Aug 24 20:14:09 2025, MaxMem=  7516192768 cpu:               1.6 elap:               0.2
 (Enter /share/apps/softwares/gaussian/16/g16/l301.exe)
 Standard basis: 6-31G(d,p) (6D, 7F)
 Ernie: Thresh=  0.10000D-02 Tol=  0.10000D-05 Strict=F.
 There are   720 symmetry adapted cartesian basis functions of A   symmetry.
 There are   720 symmetry adapted basis functions of A   symmetry.
   720 basis functions,  1281 primitive gaussians,   720 cartesian basis functions
   131 alpha electrons      130 beta electrons
       nuclear repulsion energy      3542.5563503414 Hartrees.
 IExCor=  402 DFT=T Ex+Corr=B3LYP ExCW=0 ScaHFX=  0.200000
 ScaDFX=  0.800000  0.720000  1.000000  0.810000 ScalE2=  1.000000  1.000000
 IRadAn=      5 IRanWt=     -1 IRanGd=            0 ICorTp=0 IEmpDi=141
 NAtoms=   66 NActive=   66 NUniq=   66 SFac= 1.00D+00 NAtFMM=   60 NAOKFM=T Big=T
 Integral buffers will be    131072 words long.
 Raffenetti 2 integral format.
 Two-electron integral symmetry is turned on.
 R6Disp:  Grimme-D3(BJ) Dispersion energy=       -0.1704654228 Hartrees.
 Nuclear repulsion after empirical dispersion term =     3542.3858849187 Hartrees.
 Leave Link  301 at Sun Aug 24 20:14:10 2025, MaxMem=  7516192768 cpu:               2.2 elap:               0.2
 (Enter /share/apps/softwares/gaussian/16/g16/l302.exe)
 NPDir=0 NMtPBC=     1 NCelOv=     1 NCel=       1 NClECP=     1 NCelD=      1
         NCelK=      1 NCelE2=     1 NClLst=     1 CellRange=     0.0.
 One-electron integrals computed using PRISM.
 One-electron integral symmetry used in STVInt
 NBasis=   720 RedAO= T EigKep=  1.82D-04  NBF=   720
 NBsUse=   720 1.00D-06 EigRej= -1.00D+00 NBFU=   720
 Precomputing XC quadrature grid using
 IXCGrd= 4 IRadAn=           5 IRanWt=          -1 IRanGd=           0 AccXCQ= 0.00D+00.
 Generated NRdTot=       0 NPtTot=           0 NUsed=           0 NTot=          32
 NSgBfM=   670   670   670   670   670 MxSgAt=    66 MxSgA2=    66.
 Leave Link  302 at Sun Aug 24 20:14:12 2025, MaxMem=  7516192768 cpu:              27.0 elap:               1.4
 (Enter /share/apps/softwares/gaussian/16/g16/l303.exe)
 DipDrv:  MaxL=1.
 Leave Link  303 at Sun Aug 24 20:14:13 2025, MaxMem=  7516192768 cpu:               2.6 elap:               0.2
 (Enter /share/apps/softwares/gaussian/16/g16/l401.exe)
 ExpMin= 1.61D-01 ExpMax= 3.05D+03 ExpMxC= 4.57D+02 IAcc=3 IRadAn=         5 AccDes= 0.00D+00
 Harris functional with IExCor=  402 and IRadAn=       5 diagonalized for initial guess.
 HarFok:  IExCor=  402 AccDes= 0.00D+00 IRadAn=         5 IDoV= 1 UseB2=F ITyADJ=14
 ICtDFT=  3500011 ScaDFX=  1.000000  1.000000  1.000000  1.000000
 FoFCou: FMM=F IPFlag=           0 FMFlag=      100000 FMFlg1=        2001
         NFxFlg=           0 DoJE=T BraDBF=F KetDBF=T FulRan=T
         wScrn=  0.000000 ICntrl=       500 IOpCl=  0 I1Cent=   200000004 NGrid=           0
         NMat0=    1 NMatS0=      1 NMatT0=    0 NMatD0=    1 NMtDS0=    0 NMtDT0=    0
 Petite list used in FoFCou.
 Harris En= -1502.61984226322    
 JPrj=0 DoOrth=F DoCkMO=F.
 Initial guess <Sx>= 0.0000 <Sy>= 0.0000 <Sz>= 0.5000 <S**2>= 0.7500 S= 0.5000
 Leave Link  401 at Sun Aug 24 20:14:17 2025, MaxMem=  7516192768 cpu:              72.8 elap:               3.3
 (Enter /share/apps/softwares/gaussian/16/g16/l502.exe)
 Integral symmetry usage will be decided dynamically.
 UHF open shell SCF:
 Using DIIS extrapolation, IDIIS=  1040.
 NGot=  7516192768 LenX=  7515129813 LenY=  7514610693
 Requested convergence on RMS density matrix=1.00D-08 within 128 cycles.
 Requested convergence on MAX density matrix=1.00D-06.
 Requested convergence on             energy=1.00D-06.
 No special actions if energy rises.
 Fock matrices will be formed incrementally for  20 cycles.
 Integral accuracy reduced to 1.0D-05 until final iterations.

 Cycle   1  Pass 0  IDiag  1:
 FoFJK:  IHMeth= 1 ICntrl=       0 DoSepK=F KAlg= 0 I1Cent=           0 FoldK=F
 IRaf= 670000000 NMat=       1 IRICut=       1 DoRegI=T DoRafI=F ISym2E= 0 IDoP0=0 IntGTp=1.
 FoFCou: FMM=T IPFlag=           0 FMFlag=      100000 FMFlg1=        2001
         NFxFlg=           0 DoJE=F BraDBF=F KetDBF=F FulRan=T
         wScrn=  0.000000 ICntrl=         0 IOpCl=  1 I1Cent=           0 NGrid=           0
         NMat0=    1 NMatS0=      1 NMatT0=    0 NMatD0=    1 NMtDS0=    0 NMtDT0=    0
 Symmetry not used in FoFCou.
 FMM levels:  10  Number of levels for PrismC:   9
 E= -1501.82320015692    
 DIIS: error= 4.38D-02 at cycle   1 NSaved=   1.
 NSaved= 1 IEnMin= 1 EnMin= -1501.82320015692     IErMin= 1 ErrMin= 4.38D-02
 ErrMax= 4.38D-02  0.00D+00 EMaxC= 1.00D-01 BMatC= 2.76D+00 BMatP= 2.76D+00
 IDIUse=3 WtCom= 5.62D-01 WtEn= 4.38D-01
 Coeff-Com:  0.100D+01
 Coeff-En:   0.100D+01
 Coeff:      0.100D+01
 Gap=     0.175 Goal=   None    Shift=    0.000
 Gap=     0.102 Goal=   None    Shift=    0.000
 GapD=    0.102 DampG=1.000 DampE=0.500 DampFc=0.5000 IDamp=-1.
 Damping current iteration by 5.00D-01
 RMSDP=2.92D-03 MaxDP=1.46D-01              OVMax= 1.50D-01

 Cycle   2  Pass 0  IDiag  1:
 RMSU=  1.40D-03    CP:  9.64D-01
 E= -1502.20540905064     Delta-E=       -0.382208893718 Rises=F Damp=T
 DIIS: error= 7.67D-03 at cycle   2 NSaved=   2.
 NSaved= 2 IEnMin= 2 EnMin= -1502.20540905064     IErMin= 2 ErrMin= 7.67D-03
 ErrMax= 7.67D-03  0.00D+00 EMaxC= 1.00D-01 BMatC= 1.75D-01 BMatP= 2.76D+00
 IDIUse=3 WtCom= 9.23D-01 WtEn= 7.67D-02
 Coeff-Com: -0.462D-01 0.105D+01
 Coeff-En:   0.000D+00 0.100D+01
 Coeff:     -0.427D-01 0.104D+01
 Gap=     0.130 Goal=   None    Shift=    0.000
 Gap=     0.151 Goal=   None    Shift=    0.000
 RMSDP=8.86D-04 MaxDP=7.74D-02 DE=-3.82D-01 OVMax= 9.21D-02

 Cycle   3  Pass 0  IDiag  1:
 RMSU=  8.44D-04    CP:  9.44D-01  1.09D+00
 E= -1502.57263936807     Delta-E=       -0.367230317432 Rises=F Damp=F
 DIIS: error= 5.41D-03 at cycle   3 NSaved=   3.
 NSaved= 3 IEnMin= 3 EnMin= -1502.57263936807     IErMin= 3 ErrMin= 5.41D-03
 ErrMax= 5.41D-03  0.00D+00 EMaxC= 1.00D-01 BMatC= 9.94D-02 BMatP= 1.75D-01
 IDIUse=3 WtCom= 9.46D-01 WtEn= 5.41D-02
 Coeff-Com: -0.692D-01 0.457D+00 0.612D+00
 Coeff-En:   0.000D+00 0.000D+00 0.100D+01
 Coeff:     -0.654D-01 0.433D+00 0.633D+00
 Gap=     0.155 Goal=   None    Shift=    0.000
 Gap=     0.130 Goal=   None    Shift=    0.000
 RMSDP=4.72D-04 MaxDP=3.87D-02 DE=-3.67D-01 OVMax= 7.36D-02

 Cycle   4  Pass 0  IDiag  1:
 RMSU=  3.98D-04    CP:  9.44D-01  1.15D+00  7.15D-01
 E= -1502.57984672186     Delta-E=       -0.007207353788 Rises=F Damp=F
 DIIS: error= 5.18D-03 at cycle   4 NSaved=   4.
 NSaved= 4 IEnMin= 4 EnMin= -1502.57984672186     IErMin= 4 ErrMin= 5.18D-03
 ErrMax= 5.18D-03  0.00D+00 EMaxC= 1.00D-01 BMatC= 6.31D-02 BMatP= 9.94D-02
 IDIUse=3 WtCom= 9.48D-01 WtEn= 5.18D-02
 Coeff-Com: -0.382D-01 0.160D+00 0.452D+00 0.426D+00
 Coeff-En:   0.000D+00 0.000D+00 0.433D+00 0.567D+00
 Coeff:     -0.362D-01 0.152D+00 0.451D+00 0.434D+00
 Gap=     0.129 Goal=   None    Shift=    0.000
 Gap=     0.135 Goal=   None    Shift=    0.000
 RMSDP=2.57D-04 MaxDP=2.08D-02 DE=-7.21D-03 OVMax= 5.14D-02

 Cycle   5  Pass 0  IDiag  1:
 RMSU=  1.18D-04    CP:  9.44D-01  1.15D+00  7.72D-01  4.41D-01
 E= -1502.59703811187     Delta-E=       -0.017191390005 Rises=F Damp=F
 DIIS: error= 1.50D-03 at cycle   5 NSaved=   5.
 NSaved= 5 IEnMin= 5 EnMin= -1502.59703811187     IErMin= 5 ErrMin= 1.50D-03
 ErrMax= 1.50D-03  0.00D+00 EMaxC= 1.00D-01 BMatC= 4.54D-03 BMatP= 6.31D-02
 IDIUse=3 WtCom= 9.85D-01 WtEn= 1.50D-02
 Coeff-Com: -0.151D-01 0.449D-01 0.204D+00 0.269D+00 0.498D+00
 Coeff-En:   0.000D+00 0.000D+00 0.000D+00 0.304D-01 0.970D+00
 Coeff:     -0.149D-01 0.442D-01 0.201D+00 0.265D+00 0.505D+00
 Gap=     0.128 Goal=   None    Shift=    0.000
 Gap=     0.128 Goal=   None    Shift=    0.000
 RMSDP=7.07D-05 MaxDP=4.80D-03 DE=-1.72D-02 OVMax= 1.55D-02

 Cycle   6  Pass 0  IDiag  1:
 RMSU=  4.32D-05    CP:  9.44D-01  1.15D+00  7.80D-01  5.00D-01  5.76D-01
 E= -1502.59812276532     Delta-E=       -0.001084653460 Rises=F Damp=F
 DIIS: error= 6.43D-04 at cycle   6 NSaved=   6.
 NSaved= 6 IEnMin= 6 EnMin= -1502.59812276532     IErMin= 6 ErrMin= 6.43D-04
 ErrMax= 6.43D-04  0.00D+00 EMaxC= 1.00D-01 BMatC= 7.15D-04 BMatP= 4.54D-03
 IDIUse=3 WtCom= 9.94D-01 WtEn= 6.43D-03
 Coeff-Com: -0.533D-02 0.106D-01 0.757D-01 0.120D+00 0.331D+00 0.468D+00
 Coeff-En:   0.000D+00 0.000D+00 0.000D+00 0.000D+00 0.136D+00 0.864D+00
 Coeff:     -0.529D-02 0.106D-01 0.752D-01 0.119D+00 0.330D+00 0.470D+00
 Gap=     0.128 Goal=   None    Shift=    0.000
 Gap=     0.128 Goal=   None    Shift=    0.000
 RMSDP=2.66D-05 MaxDP=1.71D-03 DE=-1.08D-03 OVMax= 5.63D-03

 Cycle   7  Pass 0  IDiag  1:
 RMSU=  1.21D-05    CP:  9.44D-01  1.15D+00  7.84D-01  5.04D-01  6.60D-01
                    CP:  5.10D-01
 E= -1502.59831122663     Delta-E=       -0.000188461303 Rises=F Damp=F
 DIIS: error= 1.57D-04 at cycle   7 NSaved=   7.
 NSaved= 7 IEnMin= 7 EnMin= -1502.59831122663     IErMin= 7 ErrMin= 1.57D-04
 ErrMax= 1.57D-04  0.00D+00 EMaxC= 1.00D-01 BMatC= 6.75D-05 BMatP= 7.15D-04
 IDIUse=3 WtCom= 9.98D-01 WtEn= 1.57D-03
 Coeff-Com: -0.188D-02 0.228D-02 0.278D-01 0.494D-01 0.160D+00 0.295D+00
 Coeff-Com:  0.468D+00
 Coeff-En:   0.000D+00 0.000D+00 0.000D+00 0.000D+00 0.000D+00 0.273D-01
 Coeff-En:   0.973D+00
 Coeff:     -0.188D-02 0.228D-02 0.278D-01 0.493D-01 0.160D+00 0.294D+00
 Coeff:      0.469D+00
 Gap=     0.128 Goal=   None    Shift=    0.000
 Gap=     0.128 Goal=   None    Shift=    0.000
 RMSDP=7.90D-06 MaxDP=7.21D-04 DE=-1.88D-04 OVMax= 1.90D-03

 Initial convergence to 1.0D-05 achieved.  Increase integral accuracy.
 Cycle   8  Pass 1  IDiag  1:
 E= -1502.59838961989     Delta-E=       -0.000078393259 Rises=F Damp=F
 DIIS: error= 2.37D-04 at cycle   1 NSaved=   1.
 NSaved= 1 IEnMin= 1 EnMin= -1502.59838961989     IErMin= 1 ErrMin= 2.37D-04
 ErrMax= 2.37D-04  0.00D+00 EMaxC= 1.00D-01 BMatC= 4.85D-05 BMatP= 4.85D-05
 IDIUse=3 WtCom= 9.98D-01 WtEn= 2.37D-03
 Coeff-Com:  0.100D+01
 Coeff-En:   0.100D+01
 Coeff:      0.100D+01
 Gap=     0.128 Goal=   None    Shift=    0.000
 Gap=     0.128 Goal=   None    Shift=    0.000
 RMSDP=7.90D-06 MaxDP=7.21D-04 DE=-7.84D-05 OVMax= 1.80D-03

 Cycle   9  Pass 1  IDiag  1:
 RMSU=  9.27D-05    CP:  1.00D+00
 E= -1502.59839147257     Delta-E=       -0.000001852681 Rises=F Damp=F
 DIIS: error= 1.41D-04 at cycle   2 NSaved=   2.
 NSaved= 2 IEnMin= 2 EnMin= -1502.59839147257     IErMin= 2 ErrMin= 1.41D-04
 ErrMax= 1.41D-04  0.00D+00 EMaxC= 1.00D-01 BMatC= 3.19D-05 BMatP= 4.85D-05
 IDIUse=3 WtCom= 9.99D-01 WtEn= 1.41D-03
 Coeff-Com:  0.422D+00 0.578D+00
 Coeff-En:   0.428D+00 0.572D+00
 Coeff:      0.422D+00 0.578D+00
 Gap=     0.128 Goal=   None    Shift=    0.000
 Gap=     0.128 Goal=   None    Shift=    0.000
 RMSDP=9.34D-06 MaxDP=9.66D-04 DE=-1.85D-06 OVMax= 2.67D-03

 Cycle  10  Pass 1  IDiag  1:
 RMSU=  9.34D-06    CP:  1.00D+00  1.00D+00
 E= -1502.59839173472     Delta-E=       -0.000000262155 Rises=F Damp=F
 DIIS: error= 1.51D-04 at cycle   3 NSaved=   3.
 NSaved= 3 IEnMin= 3 EnMin= -1502.59839173472     IErMin= 2 ErrMin= 1.41D-04
 ErrMax= 1.51D-04  0.00D+00 EMaxC= 1.00D-01 BMatC= 3.11D-05 BMatP= 3.19D-05
 IDIUse=3 WtCom= 9.98D-01 WtEn= 1.51D-03
 Coeff-Com:  0.657D-02 0.495D+00 0.499D+00
 Coeff-En:   0.000D+00 0.495D+00 0.505D+00
 Coeff:      0.656D-02 0.495D+00 0.499D+00
 Gap=     0.128 Goal=   None    Shift=    0.000
 Gap=     0.128 Goal=   None    Shift=    0.000
 RMSDP=5.08D-06 MaxDP=4.64D-04 DE=-2.62D-07 OVMax= 1.53D-03

 Cycle  11  Pass 1  IDiag  1:
 RMSU=  1.36D-06    CP:  1.00D+00  1.01D+00  4.84D-01
 E= -1502.59840084197     Delta-E=       -0.000009107247 Rises=F Damp=F
 DIIS: error= 2.10D-05 at cycle   4 NSaved=   4.
 NSaved= 4 IEnMin= 4 EnMin= -1502.59840084197     IErMin= 4 ErrMin= 2.10D-05
 ErrMax= 2.10D-05  0.00D+00 EMaxC= 1.00D-01 BMatC= 9.95D-07 BMatP= 3.11D-05
 IDIUse=1 WtCom= 1.00D+00 WtEn= 0.00D+00
 Coeff-Com: -0.716D-02 0.300D+00 0.318D+00 0.390D+00
 Coeff:     -0.716D-02 0.300D+00 0.318D+00 0.390D+00
 Gap=     0.128 Goal=   None    Shift=    0.000
 Gap=     0.128 Goal=   None    Shift=    0.000
 RMSDP=8.53D-07 MaxDP=5.51D-05 DE=-9.11D-06 OVMax= 1.86D-04

 Cycle  12  Pass 1  IDiag  1:
 RMSU=  6.49D-07    CP:  1.00D+00  1.01D+00  5.08D-01  6.30D-01
 E= -1502.59840113397     Delta-E=       -0.000000291999 Rises=F Damp=F
 DIIS: error= 1.05D-05 at cycle   5 NSaved=   5.
 NSaved= 5 IEnMin= 5 EnMin= -1502.59840113397     IErMin= 5 ErrMin= 1.05D-05
 ErrMax= 1.05D-05  0.00D+00 EMaxC= 1.00D-01 BMatC= 7.53D-08 BMatP= 9.95D-07
 IDIUse=1 WtCom= 1.00D+00 WtEn= 0.00D+00
 Coeff-Com: -0.342D-02 0.194D-01 0.244D-01 0.125D+00 0.834D+00
 Coeff:     -0.342D-02 0.194D-01 0.244D-01 0.125D+00 0.834D+00
 Gap=     0.128 Goal=   None    Shift=    0.000
 Gap=     0.128 Goal=   None    Shift=    0.000
 RMSDP=5.35D-07 MaxDP=6.86D-05 DE=-2.92D-07 OVMax= 1.41D-04

 Cycle  13  Pass 1  IDiag  1:
 RMSU=  4.21D-07    CP:  1.00D+00  1.01D+00  5.09D-01  8.53D-01  1.20D+00
 E= -1502.59840119401     Delta-E=       -0.000000060047 Rises=F Damp=F
 DIIS: error= 8.02D-06 at cycle   6 NSaved=   6.
 NSaved= 6 IEnMin= 6 EnMin= -1502.59840119401     IErMin= 6 ErrMin= 8.02D-06
 ErrMax= 8.02D-06  0.00D+00 EMaxC= 1.00D-01 BMatC= 9.41D-08 BMatP= 7.53D-08
 IDIUse=1 WtCom= 1.00D+00 WtEn= 0.00D+00
 Coeff-Com:  0.272D-02-0.256D+00-0.267D+00-0.216D+00 0.969D+00 0.767D+00
 Coeff:      0.272D-02-0.256D+00-0.267D+00-0.216D+00 0.969D+00 0.767D+00
 Gap=     0.128 Goal=   None    Shift=    0.000
 Gap=     0.128 Goal=   None    Shift=    0.000
 RMSDP=6.63D-07 MaxDP=8.97D-05 DE=-6.00D-08 OVMax= 1.79D-04

 Cycle  14  Pass 1  IDiag  1:
 RMSU=  2.14D-07    CP:  1.00D+00  1.01D+00  5.12D-01  1.09D+00  2.03D+00
                    CP:  9.16D-01
 E= -1502.59840127484     Delta-E=       -0.000000080823 Rises=F Damp=F
 DIIS: error= 2.61D-06 at cycle   7 NSaved=   7.
 NSaved= 7 IEnMin= 7 EnMin= -1502.59840127484     IErMin= 7 ErrMin= 2.61D-06
 ErrMax= 2.61D-06  0.00D+00 EMaxC= 1.00D-01 BMatC= 8.13D-09 BMatP= 7.53D-08
 IDIUse=1 WtCom= 1.00D+00 WtEn= 0.00D+00
 Coeff-Com:  0.189D-02-0.120D+00-0.125D+00-0.123D+00 0.276D+00 0.345D+00
 Coeff-Com:  0.746D+00
 Coeff:      0.189D-02-0.120D+00-0.125D+00-0.123D+00 0.276D+00 0.345D+00
 Coeff:      0.746D+00
 Gap=     0.128 Goal=   None    Shift=    0.000
 Gap=     0.128 Goal=   None    Shift=    0.000
 RMSDP=2.24D-07 MaxDP=2.63D-05 DE=-8.08D-08 OVMax= 5.78D-05

 Cycle  15  Pass 1  IDiag  1:
 RMSU=  1.04D-07    CP:  1.00D+00  1.01D+00  5.13D-01  1.17D+00  2.24D+00
                    CP:  1.13D+00  1.04D+00
 E= -1502.59840128397     Delta-E=       -0.000000009131 Rises=F Damp=F
 DIIS: error= 1.39D-06 at cycle   8 NSaved=   8.
 NSaved= 8 IEnMin= 8 EnMin= -1502.59840128397     IErMin= 8 ErrMin= 1.39D-06
 ErrMax= 1.39D-06  0.00D+00 EMaxC= 1.00D-01 BMatC= 2.39D-09 BMatP= 8.13D-09
 IDIUse=1 WtCom= 1.00D+00 WtEn= 0.00D+00
 Coeff-Com:  0.135D-03 0.148D-01 0.151D-01 0.177D-02-0.144D+00-0.497D-01
 Coeff-Com:  0.354D+00 0.808D+00
 Coeff:      0.135D-03 0.148D-01 0.151D-01 0.177D-02-0.144D+00-0.497D-01
 Coeff:      0.354D+00 0.808D+00
 Gap=     0.128 Goal=   None    Shift=    0.000
 Gap=     0.128 Goal=   None    Shift=    0.000
 RMSDP=1.16D-07 MaxDP=1.19D-05 DE=-9.13D-09 OVMax= 3.10D-05

 Cycle  16  Pass 1  IDiag  1:
 RMSU=  5.65D-08    CP:  1.00D+00  1.01D+00  5.14D-01  1.20D+00  2.35D+00
                    CP:  1.22D+00  1.26D+00  9.55D-01
 E= -1502.59840128610     Delta-E=       -0.000000002135 Rises=F Damp=F
 DIIS: error= 1.08D-06 at cycle   9 NSaved=   9.
 NSaved= 9 IEnMin= 9 EnMin= -1502.59840128610     IErMin= 9 ErrMin= 1.08D-06
 ErrMax= 1.08D-06  0.00D+00 EMaxC= 1.00D-01 BMatC= 1.07D-09 BMatP= 2.39D-09
 IDIUse=1 WtCom= 1.00D+00 WtEn= 0.00D+00
 Coeff-Com: -0.583D-03 0.523D-01 0.546D-01 0.448D-01-0.195D+00-0.156D+00
 Coeff-Com: -0.276D-01 0.542D+00 0.686D+00
 Coeff:     -0.583D-03 0.523D-01 0.546D-01 0.448D-01-0.195D+00-0.156D+00
 Coeff:     -0.276D-01 0.542D+00 0.686D+00
 Gap=     0.128 Goal=   None    Shift=    0.000
 Gap=     0.128 Goal=   None    Shift=    0.000
 RMSDP=6.22D-08 MaxDP=6.38D-06 DE=-2.14D-09 OVMax= 1.64D-05

 Cycle  17  Pass 1  IDiag  1:
 RMSU=  2.94D-08    CP:  1.00D+00  1.01D+00  5.14D-01  1.22D+00  2.39D+00
                    CP:  1.26D+00  1.36D+00  1.18D+00  7.63D-01
 E= -1502.59840128668     Delta-E=       -0.000000000574 Rises=F Damp=F
 DIIS: error= 3.51D-07 at cycle  10 NSaved=  10.
 NSaved=10 IEnMin=10 EnMin= -1502.59840128668     IErMin=10 ErrMin= 3.51D-07
 ErrMax= 3.51D-07  0.00D+00 EMaxC= 1.00D-01 BMatC= 2.06D-10 BMatP= 1.07D-09
 IDIUse=1 WtCom= 1.00D+00 WtEn= 0.00D+00
 Coeff-Com: -0.377D-03 0.296D-01 0.310D-01 0.271D-01-0.964D-01-0.887D-01
 Coeff-Com: -0.730D-01 0.212D+00 0.422D+00 0.536D+00
 Coeff:     -0.377D-03 0.296D-01 0.310D-01 0.271D-01-0.964D-01-0.887D-01
 Coeff:     -0.730D-01 0.212D+00 0.422D+00 0.536D+00
 Gap=     0.128 Goal=   None    Shift=    0.000
 Gap=     0.128 Goal=   None    Shift=    0.000
 RMSDP=1.67D-08 MaxDP=1.43D-06 DE=-5.74D-10 OVMax= 3.34D-06

 Cycle  18  Pass 1  IDiag  1:
 RMSU=  1.06D-08    CP:  1.00D+00  1.01D+00  5.14D-01  1.22D+00  2.40D+00
                    CP:  1.27D+00  1.38D+00  1.21D+00  9.04D-01  8.77D-01
 E= -1502.59840128675     Delta-E=       -0.000000000070 Rises=F Damp=F
 DIIS: error= 1.07D-07 at cycle  11 NSaved=  11.
 NSaved=11 IEnMin=11 EnMin= -1502.59840128675     IErMin=11 ErrMin= 1.07D-07
 ErrMax= 1.07D-07  0.00D+00 EMaxC= 1.00D-01 BMatC= 1.89D-11 BMatP= 2.06D-10
 IDIUse=1 WtCom= 1.00D+00 WtEn= 0.00D+00
 Coeff-Com: -0.997D-04 0.717D-02 0.749D-02 0.695D-02-0.200D-01-0.218D-01
 Coeff-Com: -0.301D-01 0.315D-01 0.109D+00 0.252D+00 0.658D+00
 Coeff:     -0.997D-04 0.717D-02 0.749D-02 0.695D-02-0.200D-01-0.218D-01
 Coeff:     -0.301D-01 0.315D-01 0.109D+00 0.252D+00 0.658D+00
 Gap=     0.128 Goal=   None    Shift=    0.000
 Gap=     0.128 Goal=   None    Shift=    0.000
 RMSDP=6.17D-09 MaxDP=5.27D-07 DE=-7.00D-11 OVMax= 1.15D-06

 SCF Done:  E(UB3LYP) =  -1502.59840129     A.U. after   18 cycles
            NFock= 18  Conv=0.62D-08     -V/T= 2.0098
 <Sx>= 0.0000 <Sy>= 0.0000 <Sz>= 0.5000 <S**2>= 0.7537 S= 0.5019
 <L.S>=  0.00000000000    
 KE= 1.488014068971D+03 PE=-1.056368671942D+04 EE= 4.030688364241D+03
 Annihilation of the first spin contaminant:
 S**2 before annihilation     0.7537,   after     0.7500
 Leave Link  502 at Sun Aug 24 20:16:33 2025, MaxMem=  7516192768 cpu:            3230.7 elap:             135.0
 (Enter /share/apps/softwares/gaussian/16/g16/l601.exe)
 Copying SCF densities to generalized density rwf, IOpCl= 1 IROHF=0.

 **********************************************************************

            Population analysis using the SCF Density.

 **********************************************************************

 Orbital symmetries:
 Alpha Orbitals:
       Occupied  (A) (A) (A) (A) (A) (A) (A) (A) (A) (A) (A) (A)
                 (A) (A) (A) (A) (A) (A) (A) (A) (A) (A) (A) (A)
                 (A) (A) (A) (A) (A) (A) (A) (A) (A) (A) (A) (A)
                 (A) (A) (A) (A) (A) (A) (A) (A) (A) (A) (A) (A)
                 (A) (A) (A) (A) (A) (A) (A) (A) (A) (A) (A) (A)
                 (A) (A) (A) (A) (A) (A) (A) (A) (A) (A) (A) (A)
                 (A) (A) (A) (A) (A) (A) (A) (A) (A) (A) (A) (A)
                 (A) (A) (A) (A) (A) (A) (A) (A) (A) (A) (A) (A)
                 (A) (A) (A) (A) (A) (A) (A) (A) (A) (A) (A) (A)
                 (A) (A) (A) (A) (A) (A) (A) (A) (A) (A) (A) (A)
                 (A) (A) (A) (A) (A) (A) (A) (A) (A) (A) (A)
       Virtual   (A) (A) (A) (A) (A) (A) (A) (A) (A) (A) (A) (A)
                 (A) (A) (A) (A) (A) (A) (A) (A) (A) (A) (A) (A)
                 (A) (A) (A) (A) (A) (A) (A) (A) (A) (A) (A) (A)
                 (A) (A) (A) (A) (A) (A) (A) (A) (A) (A) (A) (A)
                 (A) (A) (A) (A) (A) (A) (A) (A) (A) (A) (A) (A)
                 (A) (A) (A) (A) (A) (A) (A) (A) (A) (A) (A) (A)
                 (A) (A) (A) (A) (A) (A) (A) (A) (A) (A) (A) (A)
                 (A) (A) (A) (A) (A) (A) (A) (A) (A) (A) (A) (A)
                 (A) (A) (A) (A) (A) (A) (A) (A) (A) (A) (A) (A)
                 (A) (A) (A) (A) (A) (A) (A) (A) (A) (A) (A) (A)
                 (A) (A) (A) (A) (A) (A) (A) (A) (A) (A) (A) (A)
                 (A) (A) (A) (A) (A) (A) (A) (A) (A) (A) (A) (A)
                 (A) (A) (A) (A) (A) (A) (A) (A) (A) (A) (A) (A)
                 (A) (A) (A) (A) (A) (A) (A) (A) (A) (A) (A) (A)
                 (A) (A) (A) (A) (A) (A) (A) (A) (A) (A) (A) (A)
                 (A) (A) (A) (A) (A) (A) (A) (A) (A) (A) (A) (A)
                 (A) (A) (A) (A) (A) (A) (A) (A) (A) (A) (A) (A)
                 (A) (A) (A) (A) (A) (A) (A) (A) (A) (A) (A) (A)
                 (A) (A) (A) (A) (A) (A) (A) (A) (A) (A) (A) (A)
                 (A) (A) (A) (A) (A) (A) (A) (A) (A) (A) (A) (A)
                 (A) (A) (A) (A) (A) (A) (A) (A) (A) (A) (A) (A)
                 (A) (A) (A) (A) (A) (A) (A) (A) (A) (A) (A) (A)
                 (A) (A) (A) (A) (A) (A) (A) (A) (A) (A) (A) (A)
                 (A) (A) (A) (A) (A) (A) (A) (A) (A) (A) (A) (A)
                 (A) (A) (A) (A) (A) (A) (A) (A) (A) (A) (A) (A)
                 (A) (A) (A) (A) (A) (A) (A) (A) (A) (A) (A) (A)
                 (A) (A) (A) (A) (A) (A) (A) (A) (A) (A) (A) (A)
                 (A) (A) (A) (A) (A) (A) (A) (A) (A) (A) (A) (A)
                 (A) (A) (A) (A) (A) (A) (A) (A) (A) (A) (A) (A)
                 (A) (A) (A) (A) (A) (A) (A) (A) (A) (A) (A) (A)
                 (A) (A) (A) (A) (A) (A) (A) (A) (A) (A) (A) (A)
                 (A) (A) (A) (A) (A) (A) (A) (A) (A) (A) (A) (A)
                 (A) (A) (A) (A) (A) (A) (A) (A) (A) (A) (A) (A)
                 (A) (A) (A) (A) (A) (A) (A) (A) (A) (A) (A) (A)
                 (A) (A) (A) (A) (A) (A) (A) (A) (A) (A) (A) (A)
                 (A) (A) (A) (A) (A) (A) (A) (A) (A) (A) (A) (A)
                 (A) (A) (A) (A) (A) (A) (A) (A) (A) (A) (A) (A)
                 (A) (A) (A) (A) (A) (A) (A) (A) (A) (A) (A) (A)
                 (A) (A) (A) (A) (A) (A) (A) (A) (A) (A) (A) (A)
                 (A) (A) (A) (A) (A) (A) (A) (A) (A) (A) (A) (A)
                 (A) (A) (A) (A) (A) (A) (A) (A) (A) (A) (A) (A)
                 (A) (A) (A) (A) (A) (A) (A) (A) (A) (A) (A) (A)
                 (A) (A) (A) (A) (A) (A) (A) (A) (A) (A) (A) (A)
                 (A) (A) (A) (A) (A) (A) (A) (A) (A) (A) (A) (A)
                 (A) (A) (A) (A) (A) (A) (A) (A) (A) (A) (A) (A)
                 (A) (A) (A) (A) (A) (A) (A) (A) (A) (A) (A) (A)
                 (A) (A) (A) (A) (A) (A) (A) (A) (A) (A) (A) (A)
                 (A) (A) (A) (A) (A) (A) (A) (A) (A) (A) (A) (A)
                 (A) (A) (A) (A) (A) (A) (A) (A) (A) (A) (A) (A)
                 (A)
 Beta  Orbitals:
       Occupied  (A) (A) (A) (A) (A) (A) (A) (A) (A) (A) (A) (A)
                 (A) (A) (A) (A) (A) (A) (A) (A) (A) (A) (A) (A)
                 (A) (A) (A) (A) (A) (A) (A) (A) (A) (A) (A) (A)
                 (A) (A) (A) (A) (A) (A) (A) (A) (A) (A) (A) (A)
                 (A) (A) (A) (A) (A) (A) (A) (A) (A) (A) (A) (A)
                 (A) (A) (A) (A) (A) (A) (A) (A) (A) (A) (A) (A)
                 (A) (A) (A) (A) (A) (A) (A) (A) (A) (A) (A) (A)
                 (A) (A) (A) (A) (A) (A) (A) (A) (A) (A) (A) (A)
                 (A) (A) (A) (A) (A) (A) (A) (A) (A) (A) (A) (A)
                 (A) (A) (A) (A) (A) (A) (A) (A) (A) (A) (A) (A)
                 (A) (A) (A) (A) (A) (A) (A) (A) (A) (A)
       Virtual   (A) (A) (A) (A) (A) (A) (A) (A) (A) (A) (A) (A)
                 (A) (A) (A) (A) (A) (A) (A) (A) (A) (A) (A) (A)
                 (A) (A) (A) (A) (A) (A) (A) (A) (A) (A) (A) (A)
                 (A) (A) (A) (A) (A) (A) (A) (A) (A) (A) (A) (A)
                 (A) (A) (A) (A) (A) (A) (A) (A) (A) (A) (A) (A)
                 (A) (A) (A) (A) (A) (A) (A) (A) (A) (A) (A) (A)
                 (A) (A) (A) (A) (A) (A) (A) (A) (A) (A) (A) (A)
                 (A) (A) (A) (A) (A) (A) (A) (A) (A) (A) (A) (A)
                 (A) (A) (A) (A) (A) (A) (A) (A) (A) (A) (A) (A)
                 (A) (A) (A) (A) (A) (A) (A) (A) (A) (A) (A) (A)
                 (A) (A) (A) (A) (A) (A) (A) (A) (A) (A) (A) (A)
                 (A) (A) (A) (A) (A) (A) (A) (A) (A) (A) (A) (A)
                 (A) (A) (A) (A) (A) (A) (A) (A) (A) (A) (A) (A)
                 (A) (A) (A) (A) (A) (A) (A) (A) (A) (A) (A) (A)
                 (A) (A) (A) (A) (A) (A) (A) (A) (A) (A) (A) (A)
                 (A) (A) (A) (A) (A) (A) (A) (A) (A) (A) (A) (A)
                 (A) (A) (A) (A) (A) (A) (A) (A) (A) (A) (A) (A)
                 (A) (A) (A) (A) (A) (A) (A) (A) (A) (A) (A) (A)
                 (A) (A) (A) (A) (A) (A) (A) (A) (A) (A) (A) (A)
                 (A) (A) (A) (A) (A) (A) (A) (A) (A) (A) (A) (A)
                 (A) (A) (A) (A) (A) (A) (A) (A) (A) (A) (A) (A)
                 (A) (A) (A) (A) (A) (A) (A) (A) (A) (A) (A) (A)
                 (A) (A) (A) (A) (A) (A) (A) (A) (A) (A) (A) (A)
                 (A) (A) (A) (A) (A) (A) (A) (A) (A) (A) (A) (A)
                 (A) (A) (A) (A) (A) (A) (A) (A) (A) (A) (A) (A)
                 (A) (A) (A) (A) (A) (A) (A) (A) (A) (A) (A) (A)
                 (A) (A) (A) (A) (A) (A) (A) (A) (A) (A) (A) (A)
                 (A) (A) (A) (A) (A) (A) (A) (A) (A) (A) (A) (A)
                 (A) (A) (A) (A) (A) (A) (A) (A) (A) (A) (A) (A)
                 (A) (A) (A) (A) (A) (A) (A) (A) (A) (A) (A) (A)
                 (A) (A) (A) (A) (A) (A) (A) (A) (A) (A) (A) (A)
                 (A) (A) (A) (A) (A) (A) (A) (A) (A) (A) (A) (A)
                 (A) (A) (A) (A) (A) (A) (A) (A) (A) (A) (A) (A)
                 (A) (A) (A) (A) (A) (A) (A) (A) (A) (A) (A) (A)
                 (A) (A) (A) (A) (A) (A) (A) (A) (A) (A) (A) (A)
                 (A) (A) (A) (A) (A) (A) (A) (A) (A) (A) (A) (A)
                 (A) (A) (A) (A) (A) (A) (A) (A) (A) (A) (A) (A)
                 (A) (A) (A) (A) (A) (A) (A) (A) (A) (A) (A) (A)
                 (A) (A) (A) (A) (A) (A) (A) (A) (A) (A) (A) (A)
                 (A) (A) (A) (A) (A) (A) (A) (A) (A) (A) (A) (A)
                 (A) (A) (A) (A) (A) (A) (A) (A) (A) (A) (A) (A)
                 (A) (A) (A) (A) (A) (A) (A) (A) (A) (A) (A) (A)
                 (A) (A) (A) (A) (A) (A) (A) (A) (A) (A) (A) (A)
                 (A) (A) (A) (A) (A) (A) (A) (A) (A) (A) (A) (A)
                 (A) (A) (A) (A) (A) (A) (A) (A) (A) (A) (A) (A)
                 (A) (A) (A) (A) (A) (A) (A) (A) (A) (A) (A) (A)
                 (A) (A) (A) (A) (A) (A) (A) (A) (A) (A) (A) (A)
                 (A) (A) (A) (A) (A) (A) (A) (A) (A) (A) (A) (A)
                 (A) (A) (A) (A) (A) (A) (A) (A) (A) (A) (A) (A)
                 (A) (A)
 The electronic state is 2-A.
 Alpha  occ. eigenvalues --  -10.20048 -10.20004 -10.19994 -10.19893 -10.19893
 Alpha  occ. eigenvalues --  -10.19887 -10.19821 -10.19758 -10.19723 -10.19710
 Alpha  occ. eigenvalues --  -10.19559 -10.19557 -10.19136 -10.19135 -10.19079
 Alpha  occ. eigenvalues --  -10.19077 -10.19020 -10.19019 -10.18960 -10.18959
 Alpha  occ. eigenvalues --  -10.18952 -10.18952 -10.18949 -10.18949 -10.18891
[...]
 ,-0.00000004,-0.00000574,-0.00000263,-0.00000026,-0.00000063,0.0000004
 6,-0.00000107,-0.00000029,0.00000080,0.00000065,0.00000095,-0.00000063
 ,0.00000060,0.00000002,0.00000126,-0.00000067,-0.00000020,-0.00000021,
 -0.00000108,-0.00000038,0.00000021,0.00000017,-0.00000005,0.00000007,-
 0.00000013,0.00000020,-0.00000006,-0.00000008,0.00000059,-0.00000047,-
 0.00000011,0.00000035,0.00000011,0.00000015,-0.00000024,0.,-0.00000012
 ,0.00000041,-0.00000031,0.00000020,-0.00000051,-0.00000045,-0.00000002
 ,-0.00000298,-0.00001351,0.00000605,0.00000255,-0.00001342,0.00000631,
 -0.06989761,-0.21269539,0.04891136,0.06945670,-0.21351804,0.04932734,-
 0.01030902,-0.06383553,0.02080722,-0.04412336,0.03197071,-0.00895477,0
 .04445036,0.03160059,-0.00872476,0.00979761,-0.06387806,0.02084563,0.0
 2703016,0.01310010,-0.00301424,-0.00122106,0.00053343,-0.00112521,0.00
 139456,-0.01351883,0.00551015,-0.00146018,-0.01350427,0.00550293,0.001
 23208,0.00052885,-0.00112157,-0.02695265,0.01327785,-0.00313733,-0.019
 06388,0.00796067,-0.00217136,-0.00019381,-0.00047809,0.00018820,0.0006
 9592,0.00037028,-0.00006320,0.01913203,0.00786607,-0.00209334,-0.00068
 998,0.00036641,-0.00006374,0.00018672,-0.00047257,0.00018712,-0.000276
 56,0.00015374,-0.00028896,0.00027781,0.00015222,-0.00028780,0.00019599
 ,0.58733009,0.00000002,-0.00004859,-0.00151244,0.00225634,0.00025436,-
 0.00430463,0.02813838,0.00009140,0.00507937,-0.00026819,0.00864861,-0.
 08123194,-0.02826086,0.00025686,0.00492269,-0.00222586,0.00026706,-0.0
 0431994,-0.00000066,-0.00012171,0.00034246,-0.00000927,-0.00004700,-0.
 00004355,-0.00004454,0.00001770,0.00002376,-0.00000011,0.00002491,0.00
 001964,0.00004518,0.00001701,0.00002371,0.00000958,-0.00004727,-0.0000
 4489,0.00128519,0.00002526,0.00008512,0.00060784,-0.00021336,0.0010086
 2,-0.00060847,-0.00021212,0.00101341,-0.00128509,0.00003086,0.00008046
 ,-0.00001138,0.00005015,0.00003507,0.00001125,0.00004996,0.00003493,-0
 .00000021,0.00000647,0.00000687,0.00000245,0.00000136,-0.00000256,0.00
 000070,-0.00000273,0.00000064,0.00000004,-0.00000108,-0.00000141,0.000
 00091,-0.00000013,0.00000056,0.00000007,-0.00000046,0.00000045,-0.0000
 0024,0.00000047,0.00000098,-0.00000001,-0.00000104,0.00000081,-0.00000
 143,0.00000009,0.00000080,-0.00000227,0.00000188,-0.00000292,0.0000001
 3,-0.00000115,-0.00000126,-0.00000054,-0.00000290,0.00000064,-0.000000
 11,-0.00000041,0.00000049,-0.00000095,-0.00000014,0.00000050,0.0000000
 5,-0.00000110,0.00000084,0.00000008,0.00000036,-0.00000010,0.00000145,
 0.00000006,0.00000088,-0.00000063,-0.00000003,-0.00000005,-0.00000087,
 0.00000178,-0.00000058,-0.00000005,0.00000044,-0.00000008,0.00000067,-
 0.00000008,-0.00000001,0.00000017,0.00000053,0.00000102,0.00000080,0.0
 0000176,-0.00000064,0.00000506,0.00000092,0.,-0.00000479,0.00000086,-0
 .00000021,0.02090595,0.04954076,-0.07635281,-0.02102593,0.05001940,-0.
 07654133,0.00279004,0.02056562,-0.00340679,0.01430501,-0.00937720,0.00
 614175,-0.01447902,-0.00918991,0.00604510,-0.00259400,0.02057194,-0.00
 341525,-0.00815747,-0.00279842,0.00536956,0.00032476,-0.00089792,-0.00
 182217,-0.00052658,0.00551740,0.00222861,0.00052402,0.00550894,0.00223
 182,-0.00032477,-0.00089761,-0.00182231,0.00812331,-0.00287094,0.00541
 217,0.00597624,-0.00241110,0.00044795,0.00005816,0.00025036,0.00038627
 ,-0.00022597,-0.00008891,0.00023444,-0.00600511,-0.00238358,0.00042411
 ,0.00022153,-0.00008410,0.00023350,-0.00005540,0.00024544,0.00038753,0
 .00008134,-0.00029683,-0.00067021,-0.00007950,-0.00029634,-0.00067055,
 0.00047221,-0.14468220,0.21996388,0.00004598,-0.00000010,0.00000097,-0
 .00009637,-0.00012768,0.00007524,-0.00027138,0.00019254,-0.00036259,-0
 .00022105,-0.00000102,0.00000216,-0.00027400,-0.00018929,0.00036106,-0
 .00009372,0.00012799,-0.00007655,0.00002629,0.00000002,0.00000002,-0.0
 0002912,-0.00000223,-0.00002918,-0.00000932,-0.00001129,-0.00000847,-0
 .00000305,-0.00000001,-0.00000003,-0.00000931,0.00001131,0.00000845,-0
 .00002920,0.00000241,0.00002904,-0.00006357,-0.00001646,0.00000916,0.0
 0005717,0.00004646,-0.00001917,0.00005637,-0.00004657,0.00001869,-0.00
 006340,0.00001640,-0.00000945,0.00000839,-0.00000738,-0.00000331,0.000
 00840,0.00000734,0.00000333,0.00001392,-0.00000003,0.00000001,-0.00000
 500,0.00001571,-0.00001096,-0.00000475,-0.00000550,0.00000040,-0.00000
 466,-0.00000247,0.00000493,0.00000155,-0.00000040,-0.00000113,0.000001
 71,0.00000099,0.00000103,0.00000168,0.00000211,0.00000086,-0.00000111,
 -0.00000220,0.00000143,-0.00000103,-0.00000041,0.00000201,-0.00000512,
 -0.00001570,0.00001095,-0.00000462,0.00000251,-0.00000495,-0.00000472,
 0.00000552,-0.00000042,0.00000170,-0.00000099,-0.00000102,0.00000155,0
 .00000039,0.00000114,-0.00000109,0.00000222,-0.00000142,-0.00000122,0.
 00000214,0.00000042,-0.00000102,0.00000042,-0.00000201,-0.00000151,-0.
 00000124,0.00000092,0.00000183,-0.00000032,-0.00000218,-0.00000123,-0.
 00000213,-0.00000042,-0.00000150,0.00000125,-0.00000093,0.00000167,-0.
 00000212,-0.00000087,0.00000183,0.00000030,0.00000219,-0.00000876,-0.0
 0000309,-0.00000597,-0.00000876,0.00000314,0.00000594,-0.02440461,0.02
 742543,-0.00869875,-0.02488002,-0.02710094,0.00852387,-0.00533913,-0.0
 0111504,0.00038523,-0.18094857,0.11141987,-0.03625318,-0.18221563,-0.1
 1197924,0.03613353,-0.00531809,0.00105287,-0.00038973,-0.00315624,-0.0
 0064382,0.00027032,-0.00069348,0.00145731,-0.00040275,0.01680594,-0.00
 779093,0.00243673,0.01679839,0.00725915,-0.00223383,-0.00069897,-0.001
 45086,0.00039835,-0.00327726,0.00070742,-0.00029968,0.00017180,-0.0069
 6194,0.00217301,0.00016767,0.00004510,-0.00000217,0.00069485,-0.001694
 12,0.00054913,0.00038985,0.00704567,-0.00220696,0.00069350,0.00170048,
 -0.00054250,0.00016528,-0.00004410,0.00000355,0.00073535,-0.00125647,0
 .00035797,0.00074228,0.00124927,-0.00035509,-0.00038928,-0.00015187,0.
 00004903,0.72751775,-0.00000074,-0.00000495,0.00029419,-0.00025636,-0.
 00002331,-0.00017359,0.00013525,0.00028068,-0.00004295,-0.00000141,-0.
 00063705,0.00016060,-0.00013220,0.00028236,-0.00004537,0.00025744,-0.0
 0002530,-0.00017213,0.00000004,0.00003474,-0.00000765,-0.00000515,0.00
 000172,-0.00000351,0.00000289,-0.00000354,0.00000472,0.,-0.00000214,-0
 .00000219,-0.00000288,-0.00000359,0.00000466,0.00000532,0.00000168,-0.
 00000363,-0.00000338,-0.00005872,-0.00000428,0.00008658,0.00002653,-0.
 00012125,-0.00008623,0.00002721,-0.00012170,0.00000343,-0.00005882,-0.
 00000422,0.00000177,0.00000183,-0.00000224,-0.00000180,0.00000180,-0.0
 0000227,-0.00000003,0.00000159,-0.00000058,-0.00000025,-0.00000069,0.0
 0000045,-0.00000002,0.00000002,-0.00000029,0.00000001,0.00000039,-0.00
 000042,-0.00000007,0.00000010,-0.00000016,-0.00000029,-0.00000004,-0.0
 0000016,0.00000010,-0.00000033,0.00000022,-0.00000006,0.00000031,-0.00
 000007,0.00000006,-0.00000009,0.00000007,0.00000027,-0.00000061,0.0000
 0040,0.00000001,0.00000038,-0.00000039,0.00000004,0.,-0.00000029,0.000
 00028,-0.00000004,-0.00000016,0.00000007,0.00000010,-0.00000016,0.0000
 0007,0.00000030,-0.00000006,-0.00000035,0.00000021,0.00000015,-0.00000
 006,-0.00000010,0.00000008,0.00000025,0.,-0.00000009,0.00000013,0.0000
 0015,0.00000017,0.00000036,0.00000022,0.00000015,-0.00000024,0.,-0.000
 00008,-0.00000012,-0.00000032,0.00000022,-0.00000014,0.00000015,0.0000
 0016,0.00000065,-0.00000022,0.00000035,-0.00000060,-0.00000023,0.00000
 032,0.04611327,0.03111993,-0.00791809,-0.04578990,0.03149937,-0.008153
 62,-0.00212476,-0.01303915,0.00532505,0.08177414,-0.24245517,0.0588325
 0,-0.08233034,-0.24145094,0.05830424,0.00206262,-0.01305561,0.00533576
 ,0.01933941,0.00705676,-0.00264840,-0.00056042,0.00049766,-0.00010822,
 0.00831135,-0.06734583,0.02315918,-0.00884361,-0.06734035,0.02313569,0
 .00056706,0.00050228,-0.00010795,-0.01927475,0.00715333,-0.00272713,-0
 .02640832,0.01411205,-0.00242145,0.00032035,0.00013970,-0.00038604,0.0
 0186941,0.00098089,-0.00112377,0.02648937,0.01393867,-0.00230026,-0.00
 186324,0.00098177,-0.00112870,-0.00031887,0.00014159,-0.00038738,0.000
 15837,-0.00043580,0.00022280,-0.00016540,-0.00044146,0.00022398,-0.000
 15225,-0.04716538,0.01494524,0.00012543,0.64155957,0.00000018,-0.00001
 226,-0.00005520,0.00008182,0.00001298,0.00000384,0.00013503,-0.0000917
 5,0.00004141,0.00000166,-0.00002850,-0.00105782,-0.00013681,-0.0000918
 4,0.00004235,-0.00008216,0.00001394,0.00000319,0.00000004,-0.00000091,
 0.00000407,-0.00000008,-0.00000514,-0.00000027,-0.00000295,0.00000082,
 -0.00000071,0.,0.00000118,0.00000294,0.00000292,0.00000085,-0.00000066
 ,-0.00000006,-0.00000513,-0.00000015,0.00000698,0.00002157,0.00000190,
 -0.00000800,-0.00001168,0.00002086,0.00000809,-0.00001192,0.00002097,-
 0.00000714,0.00002168,0.00000183,0.00000027,0.00000114,0.00000014,-0.0
 0000023,0.00000117,0.00000015,0.00000003,0.00000098,0.00000085,0.00000
 048,0.00000044,-0.00000047,-0.00000002,-0.00000084,0.00000012,0.000000
 06,-0.00000017,-0.00000047,0.00000037,-0.00000008,-0.00000025,-0.00000
 009,-0.00000027,0.00000002,-0.00000011,-0.00000003,0.00000047,0.000000
 07,-0.00000007,0.00000030,-0.00000050,0.00000004,0.00000043,-0.0000004
 9,0.00000037,-0.00000042,-0.00000008,-0.00000016,-0.00000049,0.,-0.000
 00082,0.00000012,0.00000010,-0.00000027,0.00000001,-0.00000036,-0.0000
 0007,-0.00000024,-0.00000008,-0.00000006,0.00000030,-0.00000013,0.0000
 0029,-0.00000002,0.00000049,0.00000003,0.00000043,-0.00000023,-0.00000
 012,-0.00000008,-0.00000006,0.00000057,-0.00000023,0.00000012,0.000000
 28,-0.00000002,0.00000022,-0.00000012,-0.00000008,0.00000012,-0.000000
 04,0.00000047,0.00000007,0.00000057,-0.00000022,0.00000114,0.00000034,
 0.00000006,-0.00000117,0.00000036,0.00000008,-0.01458301,-0.00821409,0
 .00738012,0.01440678,-0.00840246,0.00747612,0.00070900,0.00533288,0.00
 240725,-0.02714702,0.05963860,-0.07982681,0.02703127,0.05903429,-0.079
 56399,-0.00071346,0.00534108,0.00240268,-0.00618830,-0.00241867,0.0004
 8726,0.00018799,-0.00005810,0.00022744,-0.00273848,0.02302386,-0.00316
 593,0.00294081,0.02304041,-0.00316385,-0.00019214,-0.00006315,0.000228
 31,0.00616025,-0.00244787,0.00051173,0.00854628,-0.00304437,0.00552921
 ,-0.00011738,-0.00027267,-0.00064860,-0.00065689,-0.00117624,-0.002307
 43,-0.00858358,-0.00297088,0.00548454,0.00066328,-0.00117261,-0.002306
 95,0.00011935,-0.00027347,-0.00064810,-0.00004749,0.00025975,0.0003251
 6,0.00005057,0.00026470,0.00032389,0.00004855,0.01476081,-0.00534566,0
 .00069991,-0.16762652,0.18138912,0.00000853,-0.00000001,0.00000006,-0.
 00000133,0.00001470,-0.00000737,-0.00002597,-0.00001110,-0.00002129,0.
 00000221,0.00000103,0.00000124,-0.00002570,0.00001118,0.00002110,-0.00
 000137,-0.00001480,0.00000738,0.00002944,-0.00000007,0.00000006,-0.000
 01419,0.00000057,-0.00000493,-0.00000278,-0.00000486,-0.00000264,0.000
 00177,-0.00000001,0.,-0.00000277,0.00000488,0.00000263,-0.00001421,-0.
 00000050,0.00000486,-0.00000765,-0.00000188,0.00000567,0.00000531,-0.0
 0000790,-0.00000861,0.00000531,0.00000789,0.00000854,-0.00000759,0.000
 00189,-0.00000571,0.00000355,-0.00000280,-0.00000374,0.00000355,0.0000
 0278,0.00000376,0.00000853,-0.00000002,0.00000001,-0.00000263,0.000008
 34,-0.00000586,-0.00000312,-0.00000266,0.00000039,-0.00000318,-0.00000
 128,0.00000233,0.00000044,-0.00000019,-0.00000136,0.00000039,0.0000011
 4,0.00000065,0.00000147,0.00000097,0.00000095,-0.00000081,-0.00000049,
 0.00000033,-0.00000009,-0.00000028,0.00000141,-0.00000270,-0.00000833,
 0.00000585,-0.00000316,0.00000131,-0.00000235,-0.00000310,0.00000268,-
 0.00000040,0.00000039,-0.00000114,-0.00000065,0.00000044,0.00000019,0.
 00000136,-0.00000081,0.00000050,-0.00000033,-0.00000003,0.00000139,0.0
 0000020,-0.00000008,0.00000028,-0.00000140,-0.00000049,-0.00000113,0.0
 0000077,0.00000149,-0.00000049,-0.00000124,-0.00000004,-0.00000139,-0.
 00000020,-0.00000048,0.00000113,-0.00000077,0.00000147,-0.00000097,-0.
 00000094,0.00000149,0.00000048,0.00000125,-0.00000330,-0.00000190,-0.0
 0000292,-0.00000330,0.00000192,0.00000291,0.00114648,0.00279309,-0.000
 91868,0.00112146,-0.00283069,0.00091885,-0.00082230,-0.00067061,0.0002
 1213,-0.01322270,-0.00170054,0.00055252,-0.01338394,0.00178901,-0.0006
 2175,-0.00082686,0.00067692,-0.00021665,0.00023290,0.00006068,-0.00003
 002,-0.00011722,0.00026469,-0.00007238,0.00071018,-0.00197443,0.000628
 55,0.00071094,0.00198105,-0.00061966,-0.00012022,-0.00026674,0.0000719
 2,0.00023128,-0.00006061,0.00003107,0.00002136,0.00031842,-0.00009423,
 0.00005262,0.00003819,-0.00001369,0.00060449,0.00080556,-0.00026049,0.
 00002236,-0.00031733,0.00009429,0.00060470,-0.00081102,0.00026325,0.00
 005278,-0.00003863,0.00001386,-0.00001156,0.00006443,-0.00001893,-0.00
 001188,-0.00006460,0.00001831,0.00037293,-0.00000348,0.00000234,-0.332
 57183,0.00069843,-0.00059576,0.35525908,-0.00000003,-0.00000570,-0.000
 00210,0.00001016,0.00000116,-0.00002015,0.00006203,0.00001577,0.000024
 54,0.00000103,0.00007822,-0.00040076,-0.00006191,0.00001604,0.00002417
 ,-0.00001007,0.00000129,-0.00002023,-0.00000007,0.00000150,-0.00000107
 ,0.00000035,0.00000025,-0.00000063,-0.00000036,0.00000011,0.00000014,0
 .,0.00000019,0.00000021,0.00000037,0.00000008,0.00000013,-0.00000028,0
 .00000025,-0.00000065,0.00000622,-0.00000159,-0.00000052,0.00000519,-0
 .00000643,-0.00000647,-0.00000523,-0.00000644,-0.00000654,-0.00000619,
 -0.00000157,-0.00000052,-0.00000027,-0.00000021,0.00000060,0.00000024,
 -0.00000022,0.00000058,-0.00000002,-0.00000015,-0.00000004,-0.00000009
 ,-0.00000014,0.00000010,0.,0.00000014,-0.00000004,-0.00000004,0.000000
 04,0.00000005,-0.00000006,0.,0.00000003,0.00000002,0.00000011,0.000000
 03,0.00000004,0.,-0.00000005,0.00000002,0.00000006,-0.00000010,0.00000
 009,0.00000001,-0.00000007,0.00000010,-0.00000010,0.00000007,0.0000000
 6,0.00000003,0.00000007,0.00000002,0.00000012,-0.00000004,-0.00000002,
 0.00000012,0.00000004,0.00000006,0.,0.00000002,-0.00000002,0.00000005,
 -0.00000010,0.00000001,-0.00000006,-0.00000002,-0.00000009,0.00000001,
 -0.00000007,0.00000002,0.00000001,0.00000003,0.,-0.00000012,0.00000005
 ,-0.00000001,-0.00000006,-0.00000002,-0.00000002,0.,0.00000004,-0.0000
 0005,0.,-0.00000004,-0.00000001,-0.00000012,0.00000004,-0.00000011,-0.
 00000011,0.00000004,0.00000013,-0.00000012,0.00000003,0.00093582,-0.00
 364248,0.00315046,-0.00097360,-0.00362295,0.00314173,0.00137301,0.0003
 2998,-0.00008306,0.02655923,0.00350757,-0.00005471,-0.02647132,0.00363
 595,-0.00016181,-0.00136666,0.00033359,-0.00008764,0.00017466,0.000149
 84,-0.00010637,0.00018256,-0.00035868,0.00018577,0.00183047,0.00079003
 ,-0.00150943,-0.00182379,0.00078925,-0.00151379,-0.00018456,-0.0003563
 5,0.00018463,-0.00017464,0.00015106,-0.00010726,-0.00046545,0.00015457
 ,-0.00009086,-0.00006608,-0.00001575,0.00002219,-0.00083154,-0.0003061
 2,0.00019058,0.00046651,0.00015380,-0.00008941,0.00082603,-0.00030622,
 0.00019267,0.00006564,-0.00001589,0.00002240,-0.00001136,0.00001726,0.
 00008093,0.00001118,0.00001754,0.00008088,-0.00000330,-0.00085262,0.00
 006013,0.00069878,-0.05679627,0.00762736,-0.00075281,0.05615042,0.0000
 0004,-0.00001087,-0.00002254,0.00002666,0.00002651,-0.00002901,0.00014
 838,0.00003406,0.00005106,0.00000124,-0.00040156,-0.00109462,-0.000148
 52,0.00003487,0.00005053,-0.00002641,0.00002659,-0.00002909,0.00000005
 ,-0.00000306,0.00000114,0.00000280,0.00000041,0.00000103,-0.00000195,-
 0.00000084,-0.00000093,0.,0.00000139,0.00000140,0.00000194,-0.00000083
 ,-0.00000091,-0.00000286,0.00000042,0.00000104,0.00001438,0.00000439,0
 .00000055,0.00000388,-0.00001068,0.00001307,-0.00000397,-0.00001063,0.
 00001309,-0.00001439,0.00000448,0.00000047,-0.00000044,0.00000021,-0.0
 0000045,0.00000046,0.00000022,-0.00000044,0.00000002,-0.00000043,-0.00
 000056,-0.00000010,-0.00000004,0.00000009,0.00000003,0.00000041,0.0000
 0002,-0.00000002,-0.00000001,0.00000034,-0.00000017,0.00000003,0.00000
 019,0.00000011,0.00000013,0.00000003,0.00000003,0.00000010,-0.00000030
 ,-0.00000004,-0.00000007,-0.00000013,0.00000023,0.,-0.00000024,0.00000
 009,-0.00000007,0.00000011,0.,0.,0.00000033,-0.00000004,0.00000042,0.0
 0000002,-0.00000010,0.00000013,0.00000003,0.00000018,0.00000003,0.0000
 0019,0.00000004,-0.00000007,-0.00000013,0.00000015,-0.00000020,-0.0000
 0002,-0.00000023,0.,-0.00000025,0.00000007,0.00000007,0.00000006,0.,-0
 .00000032,0.00000008,-0.00000015,-0.00000020,-0.00000002,-0.00000007,0
 .00000007,0.00000005,-0.00000002,0.00000010,-0.00000031,0.,-0.00000032
 ,0.00000008,-0.00000064,-0.00000024,-0.00000008,0.00000062,-0.00000023
 ,-0.00000007,-0.00040699,0.00311163,0.00501603,0.00040694,0.00309785,0
 .00502153,-0.00044728,-0.00007688,0.00015661,-0.00852978,-0.00022454,0
 .00321010,0.00845988,-0.00026131,0.00324294,0.00044281,-0.00007638,0.0
 0015757,-0.00006521,-0.00011705,-0.00015293,-0.00008957,0.00019726,0.0
 0022374,-0.00062516,-0.00149788,-0.00331487,0.00063414,-0.00149293,-0.
 00331485,0.00008917,0.00019570,0.00022441,0.00006620,-0.00011765,-0.00
 015253,0.00014975,-0.00009808,-0.00010535,0.00001991,0.00001962,0.0000
 3998,0.00028839,0.00018084,0.00017724,-0.00014973,-0.00009863,-0.00010
 558,-0.00028569,0.00017897,0.00017713,-0.00001976,0.00001956,0.0000399
 5,0.00000799,0.00007528,0.00023819,-0.00000864,0.00007506,0.00023823,0
 .00000256,0.00014525,-0.00067709,-0.00059534,0.00779607,-0.03622501,0.
 00065416,-0.01072613,0.02692965\\-0.00000652,-0.00000049,0.00000007,0.
 00000122,0.00000115,0.00000062,-0.00000025,0.00000155,0.00000097,-0.00
 000609,-0.00000009,-0.00000004,-0.00000022,-0.00000136,-0.00000100,0.0
 0000148,-0.00000086,-0.00000068,0.00001114,0.00000023,-0.00000048,-0.0
 0000629,-0.00000148,-0.00000063,0.00000896,0.00000103,-0.00000510,0.00
 000533,-0.00000822,-0.00002080,0.00000887,-0.00000347,0.00000786,-0.00
 000570,0.00000127,0.00000108,-0.00000035,-0.00000029,-0.00000032,0.000
 00064,0.,-0.00000034,0.00000067,0.00000004,0.00000033,-0.00000019,0.00
 000046,0.00000038,-0.00000124,0.00000056,0.00000129,-0.00000142,-0.000
 00060,-0.00000118,0.00000257,0.00001815,0.00001895,-0.00001277,0.00000
 877,-0.00000205,0.00000922,-0.00001262,0.00000411,-0.00000334,-0.00000
 290,0.00000706,0.00000137,0.00000114,-0.00000141,0.00000137,0.00000223
 ,-0.00000119,0.00000104,-0.00000030,-0.00000248,-0.00000124,-0.0000015
 0,0.00000125,0.00000042,0.00000213,0.00000008,-0.00003702,-0.00002407,
 0.00000602,-0.00000571,0.00000191,-0.00000652,0.00002810,0.00002105,-0
 .00001034,0.00000124,-0.00000220,0.00000135,0.00000141,-0.00000094,0.0
 0000150,-0.00000129,0.00000135,-0.00000140,0.00000118,-0.00000025,0.00
 000167,0.00000033,-0.00000214,-0.00000003,0.00000094,0.00000091,-0.000
 00082,-0.00000012,0.00000244,0.00000123,0.00000110,0.00000030,-0.00000
 167,0.00000095,-0.00000088,0.00000086,0.00000087,0.00000079,0.00000239
 ,0.00000014,-0.00000259,-0.00000076,-0.00000223,-0.00000052,-0.0000021
 7,-0.00000205,0.00000046,0.00000231,-0.00000030,0.00000005,0.00000076,
 -0.00000027,-0.00000011,-0.00000074,-0.00000056,0.00000133,-0.00000001
 ,0.00000111,-0.00000020,0.00000057,0.00000115,0.00000018,-0.00000057,-
 0.00000059,-0.00000149,0.,-0.00000024,0.00000027,0.00000015,-0.0000000
 3,-0.00000057,-0.00000011,-0.00000031,0.00000007,0.00000011,-0.0000003
 2,-0.00000008,-0.00000010,0.00000008,0.00000051,0.00000010,-0.00000023
 ,-0.00000027,-0.00000014,-0.00000013,-0.00000057,-0.00000003,0.0000002
 9,0.00000010,-0.00000026,-0.00000008,0.00000024,0.,-0.00000013,0.00000
 059,0.00000003,-0.00000008,-0.00000024,0.,0.00000029,-0.00000011,0.000
 00027,-0.00000006,0.00000010,0.00000023,-0.00000005,-0.00000010,-0.000
 00023,0.00000503,0.00000018,0.00000002,-0.00000095,0.,0.,-0.00000011,0
 .,0.\\\@
 The archive entry for this job was punched.


 I DON'T PRETEND TO UNDERSTAND THE UNIVERSE --
 IT'S A GREAT DEAL BIGGER THAN I AM.
       -- ATTR. TO WILLIAM ALLINGHAM (1828-89)
 Job cpu time:       0 days 20 hours 24 minutes  4.9 seconds.
 Elapsed time:       0 days  0 hours 51 minutes  4.3 seconds.
 File lengths (MBytes):  RWF=   6471 Int=      0 D2E=      0 Chk=     61 Scr=      2
 Normal termination of Gaussian 16 at Sun Aug 24 21:18:37 2025.
