 Entering Gaussian System, Link 0=g16
 Input=molecule.gjf
 Output=molecule.log
 Initial command:
 /share/apps/softwares/gaussian/16/g16/l1.exe "/share/home/kae/gaussian/corrtectedOI/predict/test1/Gau-1152.inp" -scrdir="/share/home/kae/gaussian/corrtectedOI/predict/test1/"
 Entering Link 1 = /share/apps/softwares/gaussian/16/g16/l1.exe PID=      1156.
  
 Copyright (c) 1988-2019, Gaussian, Inc.  All Rights Reserved.
  
 This is part of the Gaussian(R) 16 program.  It is based on
 the Gaussian(R) 09 system (copyright 2009, Gaussian, Inc.),
 the Gaussian(R) 03 system (copyright 2003, Gaussian, Inc.),
 the Gaussian(R) 98 system (copyright 1998, Gaussian, Inc.),
 the Gaussian(R) 94 system (copyright 1995, Gaussian, Inc.),
 the Gaussian 92(TM) system (copyright 1992, Gaussian, Inc.),
 the Gaussian 90(TM) system (copyright 1990, Gaussian, Inc.),
 the Gaussian 88(TM) system (copyright 1988, Gaussian, Inc.),
 the Gaussian 86(TM) system (copyright 1986, Carnegie Mellon
 University), and the Gaussian 82(TM) system (copyright 1983,
 Carnegie Mellon University). Gaussian is a federally registered
 trademark of Gaussian, Inc.
  
 This software contains proprietary and confidential information,
 including trade secrets, belonging to Gaussian, Inc.
  
 This software is provided under written license and may be
 used, copied, transmitted, or stored only in accord with that
 written license.
  
 The following legend is applicable only to US Government
 contracts under FAR:
  
                    RESTRICTED RIGHTS LEGEND
  
 Use, reproduction and disclosure by the US Government is
 subject to restrictions as set forth in subparagraphs (a)
 and (c) of the Commercial Computer Software - Restricted
 Rights clause in FAR 52.227-19.
  
 Gaussian, Inc.
 340 Quinnipiac St., Bldg. 40, Wallingford CT 06492
  
  
 ---------------------------------------------------------------
 Warning -- This program may not be used in any manner that
 competes with the business of Gaussian, Inc. or will provide
 assistance to any competitor of Gaussian, Inc.  The licensee
 of this program is prohibited from giving any competitor of
 Gaussian, Inc. access to this program.  By using this program,
 the user acknowledges that Gaussian, Inc. is engaged in the
 business of creating and licensing software in the field of
 computational chemistry and represents and warrants to the
 licensee that it is not a competitor of Gaussian, Inc. and that
 it will not use this program in any manner prohibited above.
 ---------------------------------------------------------------
  

 Cite this work as:
 Gaussian 16, Revision C.01,
 M. J. Frisch, G. W. Trucks, H. B. Schlegel, G. E. Scuseria, 
 M. A. Robb, J. R. Cheeseman, G. Scalmani, V. Barone, 
 G. A. Petersson, H. Nakatsuji, X. Li, M. Caricato, A. V. Marenich, 
 J. Bloino, B. G. Janesko, R. Gomperts, B. Mennucci, H. P. Hratchian, 
 J. V. Ortiz, A. F. Izmaylov, J. L. Sonnenberg, D. Williams-Young, 
 F. Ding, F. Lipparini, F. Egidi, J. Goings, B. Peng, A. Petrone, 
 T. Henderson, D. Ranasinghe, V. G. Zakrzewski, J. Gao, N. Rega, 
 G. Zheng, W. Liang, M. Hada, M. Ehara, K. Toyota, R. Fukuda, 
 J. Hasegawa, M. Ishida, T. Nakajima, Y. Honda, O. Kitao, H. Nakai, 
 T. Vreven, K. Throssell, J. A. Montgomery, Jr., J. E. Peralta, 
 F. Ogliaro, M. J. Bearpark, J. J. Heyd, E. N. Brothers, K. N. Kudin, 
 V. N. Staroverov, T. A. Keith, R. Kobayashi, J. Normand, 
 K. Raghavachari, A. P. Rendell, J. C. Burant, S. S. Iyengar, 
 J. Tomasi, M. Cossi, J. M. Millam, M. Klene, C. Adamo, R. Cammi, 
 J. W. Ochterski, R. L. Martin, K. Morokuma, O. Farkas, 
 J. B. Foresman, and D. J. Fox, Gaussian, Inc., Wallingford CT, 2019.
 
 ******************************************
 Gaussian 16:  ES64L-G16RevC.01  3-Jul-2019
                19-Aug-2025 
 ******************************************
 %mem=56GB
 %nprocshared=24
 Will use up to   24 processors via shared memory.
 %chk=molecule.chk
 -----------------------------------------------
 #p opt=recalc=5 freq Ub3lyp/6-31g(d,p) em=gd3bj
 -----------------------------------------------
 1/10=4,18=20,19=15,26=3,38=1,71=5/1,3;
 2/9=110,12=2,17=6,18=5,40=1/2;
 3/5=1,6=6,7=101,11=2,25=1,30=1,71=2,74=-5,116=2,124=41,140=1/1,2,3;
 4//1;
 5/5=2,38=5/2;
 8/6=4,10=90,11=11/1;
 11/6=1,8=1,9=11,15=111,16=1/1,2,10;
 10/6=1,13=1/2;
 6/7=2,8=2,9=2,10=2,28=1/1;
 7/10=1,25=1/1,2,3,16;
 1/10=4,18=20,19=15,26=3,71=5/3(3);
 2/9=110/2;
 7/9=1,25=1,44=-1/16;
 99//99;
 2/9=110/2;
 3/5=1,6=6,7=101,11=2,25=1,30=1,71=2,74=-5,116=2,124=41,140=1/1,2,3;
 4/5=5,16=3,69=1/1;
 5/5=2,38=5/2;
 8/6=4,10=90,11=11/1;
 11/6=1,8=1,9=11,15=111,16=1/1,2,10;
 10/6=1,13=1/2;
 7/10=1,25=1/1,2,3,16;
 1/18=20,19=15,26=3,71=5/3(-8);
 2/9=110/2;
 6/7=2,8=2,9=2,10=2,19=2,28=1/1;
 7/9=1,25=1,44=-1/16;
 99/9=1/99;
 Leave Link    1 at Tue Aug 19 16:00:45 2025, MaxMem=  7516192768 cpu:               2.5 elap:               0.3
 (Enter /share/apps/softwares/gaussian/16/g16/l101.exe)
 --------
 molecule
 --------
 Symbolic Z-matrix:
 Charge =  0 Multiplicity = 2
 C                    -2.56038   0.00005   0.00004 
 C                    -3.28115   1.08451  -0.52446 
 C                    -4.67191   1.08348  -0.52367 
 C                    -5.39097   0.00003   0.00001 
 C                    -4.67191  -1.08341   0.52371 
 C                    -3.28114  -1.08442   0.52452 
 C                    -1.08298   0.00006   0.00005 
 C                    -0.36159   0.58984  -1.04643 
 C                     1.02452   0.58578  -1.03939 
 C                     1.78856   0.00005   0.00005 
 C                     1.02451  -0.58568   1.03948 
 C                    -0.36159  -0.58973   1.04653 
 H                    -2.74723   1.94607  -0.9123 
 H                    -5.21484   1.93247  -0.92645 
 H                    -5.21482  -1.93241   0.92648 
 H                    -2.74722  -1.94597   0.91237 
 H                    -0.88067   1.0131   -1.89704 
 H                    -0.88067  -1.01299   1.89714 
 C                     3.25041  -0.00002   0.00003 
 C                     4.2107    1.07631  -0.2604 
 C                     5.61083   0.87362  -0.2114 
 C                     3.80278   2.39465  -0.57713 
 C                     6.53225   1.88558  -0.45179 
 C                     4.70008   3.42565  -0.82748 
 C                     6.06349   3.15825  -0.76046 
 H                     7.59323   1.67676  -0.41919 
 C                     4.21069  -1.07635   0.26037 
 C                     3.80281  -2.39469   0.57711 
 C                     5.61083  -0.87364   0.2113 
 C                     4.70014  -3.42569   0.82739 
 C                     6.53227  -1.8856    0.4516 
 C                     6.06354  -3.15828   0.76028 
 H                     4.33945  -4.42123   1.04908 
 H                     7.59325  -1.67677   0.41894 
 Cl                    7.2077    4.44416  -1.06949 
 Cl                    7.20779  -4.44418   1.0692 
 Cl                    2.10638  -2.83103   0.57638 
 Cl                    1.81245  -1.24832   2.46114 
 Cl                    1.81244   1.24837  -2.46108 
 C                    -7.58198  -0.87656  -0.85765 
 C                    -7.58202   0.87657   0.85763 
 C                    -6.91876  -1.76098  -1.76643 
 C                    -9.02608  -0.87657  -0.84788 
 C                    -9.02612   0.87655   0.84782 
 C                    -6.91884   1.76101   1.76642 
 C                    -7.62812  -2.59987  -2.58426 
 H                    -5.83607  -1.75461  -1.80427 
 C                    -9.72648  -1.77015  -1.7151 
 C                    -9.72655   1.77011   1.71503 
 H                    -5.83615   1.75466   1.80429 
 C                    -7.62823   2.59988   2.58424 
 C                    -9.05136  -2.61135  -2.55658 
 H                    -7.10233  -3.26082  -3.26641 
 H                    -10.81259  -1.76256  -1.69177 
 C                    -9.05147   2.61133   2.55653 
 H                    -10.81266   1.7625    1.69168 
 H                    -7.10248   3.26084   3.2664 
 H                    -9.59564  -3.28497  -3.21105 
 H                    -9.59579   3.28494   3.21099 
 C                    -6.88022   0.00001  0. 
 C                    -9.70735  -0.00002  -0.00003 
 H                    -10.7944  -0.00003  -0.00005 
 Cl                    2.10634   2.83096  -0.57623 
 H                     4.33937   4.42119  -1.04916 
 
 ITRead=  0  0  0  0  0  0  0  0  0  0  0  0  0  0  0  0  0  0  0  0
 ITRead=  0  0  0  0  0  0  0  0  0  0  0  0  0  0  0  0  0  0  0  0
 ITRead=  0  0  0  0  0  0  0  0  0  0  0  0  0  0  0  0  0  0  0  0
 ITRead=  0  0  0  0
 MicOpt= -1 -1 -1 -1 -1 -1 -1 -1 -1 -1 -1 -1 -1 -1 -1 -1 -1 -1 -1 -1
 MicOpt= -1 -1 -1 -1 -1 -1 -1 -1 -1 -1 -1 -1 -1 -1 -1 -1 -1 -1 -1 -1
 MicOpt= -1 -1 -1 -1 -1 -1 -1 -1 -1 -1 -1 -1 -1 -1 -1 -1 -1 -1 -1 -1
 MicOpt= -1 -1 -1 -1
 NAtoms=     64 NQM=       64 NQMF=       0 NMMI=      0 NMMIF=      0
                NMic=       0 NMicF=      0.
                    Isotopes and Nuclear Properties:
 (Nuclear quadrupole moments (NQMom) in fm**2, nuclear magnetic moments (NMagM)
  in nuclear magnetons)

  Atom         1           2           3           4           5           6           7           8           9          10
 IAtWgt=          12          12          12          12          12          12          12          12          12          12
 AtmWgt=  12.0000000  12.0000000  12.0000000  12.0000000  12.0000000  12.0000000  12.0000000  12.0000000  12.0000000  12.0000000
 NucSpn=           0           0           0           0           0           0           0           0           0           0
 AtZEff=  -0.0000000  -0.0000000  -0.0000000  -0.0000000  -0.0000000  -0.0000000  -0.0000000  -0.0000000  -0.0000000  -0.0000000
 NQMom=    0.0000000   0.0000000   0.0000000   0.0000000   0.0000000   0.0000000   0.0000000   0.0000000   0.0000000   0.0000000
 NMagM=    0.0000000   0.0000000   0.0000000   0.0000000   0.0000000   0.0000000   0.0000000   0.0000000   0.0000000   0.0000000
 AtZNuc=   6.0000000   6.0000000   6.0000000   6.0000000   6.0000000   6.0000000   6.0000000   6.0000000   6.0000000   6.0000000

  Atom        11          12          13          14          15          16          17          18          19          20
 IAtWgt=          12          12           1           1           1           1           1           1          12          12
 AtmWgt=  12.0000000  12.0000000   1.0078250   1.0078250   1.0078250   1.0078250   1.0078250   1.0078250  12.0000000  12.0000000
 NucSpn=           0           0           1           1           1           1           1           1           0           0
 AtZEff=  -0.0000000  -0.0000000  -0.0000000  -0.0000000  -0.0000000  -0.0000000  -0.0000000  -0.0000000  -0.0000000  -0.0000000
 NQMom=    0.0000000   0.0000000   0.0000000   0.0000000   0.0000000   0.0000000   0.0000000   0.0000000   0.0000000   0.0000000
 NMagM=    0.0000000   0.0000000   2.7928460   2.7928460   2.7928460   2.7928460   2.7928460   2.7928460   0.0000000   0.0000000
 AtZNuc=   6.0000000   6.0000000   1.0000000   1.0000000   1.0000000   1.0000000   1.0000000   1.0000000   6.0000000   6.0000000

  Atom        21          22          23          24          25          26          27          28          29          30
 IAtWgt=          12          12          12          12          12           1          12          12          12          12
 AtmWgt=  12.0000000  12.0000000  12.0000000  12.0000000  12.0000000   1.0078250  12.0000000  12.0000000  12.0000000  12.0000000
 NucSpn=           0           0           0           0           0           1           0           0           0           0
 AtZEff=  -0.0000000  -0.0000000  -0.0000000  -0.0000000  -0.0000000  -0.0000000  -0.0000000  -0.0000000  -0.0000000  -0.0000000
 NQMom=    0.0000000   0.0000000   0.0000000   0.0000000   0.0000000   0.0000000   0.0000000   0.0000000   0.0000000   0.0000000
 NMagM=    0.0000000   0.0000000   0.0000000   0.0000000   0.0000000   2.7928460   0.0000000   0.0000000   0.0000000   0.0000000
 AtZNuc=   6.0000000   6.0000000   6.0000000   6.0000000   6.0000000   1.0000000   6.0000000   6.0000000   6.0000000   6.0000000

  Atom        31          32          33          34          35          36          37          38          39          40
 IAtWgt=          12          12           1           1          35          35          35          35          35          12
 AtmWgt=  12.0000000  12.0000000   1.0078250   1.0078250  34.9688527  34.9688527  34.9688527  34.9688527  34.9688527  12.0000000
 NucSpn=           0           0           1           1           3           3           3           3           3           0
 AtZEff=  -0.0000000  -0.0000000  -0.0000000  -0.0000000  -0.0000000  -0.0000000  -0.0000000  -0.0000000  -0.0000000  -0.0000000
 NQMom=    0.0000000   0.0000000   0.0000000   0.0000000  -8.1650000  -8.1650000  -8.1650000  -8.1650000  -8.1650000   0.0000000
 NMagM=    0.0000000   0.0000000   2.7928460   2.7928460   0.8218740   0.8218740   0.8218740   0.8218740   0.8218740   0.0000000
 AtZNuc=   6.0000000   6.0000000   1.0000000   1.0000000  17.0000000  17.0000000  17.0000000  17.0000000  17.0000000   6.0000000

  Atom        41          42          43          44          45          46          47          48          49          50
 IAtWgt=          12          12          12          12          12          12           1          12          12           1
 AtmWgt=  12.0000000  12.0000000  12.0000000  12.0000000  12.0000000  12.0000000   1.0078250  12.0000000  12.0000000   1.0078250
 NucSpn=           0           0           0           0           0           0           1           0           0           1
 AtZEff=  -0.0000000  -0.0000000  -0.0000000  -0.0000000  -0.0000000  -0.0000000  -0.0000000  -0.0000000  -0.0000000  -0.0000000
 NQMom=    0.0000000   0.0000000   0.0000000   0.0000000   0.0000000   0.0000000   0.0000000   0.0000000   0.0000000   0.0000000
 NMagM=    0.0000000   0.0000000   0.0000000   0.0000000   0.0000000   0.0000000   2.7928460   0.0000000   0.0000000   2.7928460
 AtZNuc=   6.0000000   6.0000000   6.0000000   6.0000000   6.0000000   6.0000000   1.0000000   6.0000000   6.0000000   1.0000000

  Atom        51          52          53          54          55          56          57          58          59          60
 IAtWgt=          12          12           1           1          12           1           1           1           1          12
 AtmWgt=  12.0000000  12.0000000   1.0078250   1.0078250  12.0000000   1.0078250   1.0078250   1.0078250   1.0078250  12.0000000
 NucSpn=           0           0           1           1           0           1           1           1           1           0
 AtZEff=  -0.0000000  -0.0000000  -0.0000000  -0.0000000  -0.0000000  -0.0000000  -0.0000000  -0.0000000  -0.0000000  -0.0000000
 NQMom=    0.0000000   0.0000000   0.0000000   0.0000000   0.0000000   0.0000000   0.0000000   0.0000000   0.0000000   0.0000000
 NMagM=    0.0000000   0.0000000   2.7928460   2.7928460   0.0000000   2.7928460   2.7928460   2.7928460   2.7928460   0.0000000
 AtZNuc=   6.0000000   6.0000000   1.0000000   1.0000000   6.0000000   1.0000000   1.0000000   1.0000000   1.0000000   6.0000000

  Atom        61          62          63          64
 IAtWgt=          12           1          35           1
 AtmWgt=  12.0000000   1.0078250  34.9688527   1.0078250
 NucSpn=           0           1           3           1
 AtZEff=  -0.0000000  -0.0000000  -0.0000000  -0.0000000
 NQMom=    0.0000000   0.0000000  -8.1650000   0.0000000
 NMagM=    0.0000000   2.7928460   0.8218740   2.7928460
 AtZNuc=   6.0000000   1.0000000  17.0000000   1.0000000
 Leave Link  101 at Tue Aug 19 16:00:46 2025, MaxMem=  7516192768 cpu:              10.3 elap:               0.6
 (Enter /share/apps/softwares/gaussian/16/g16/l103.exe)

 GradGradGradGradGradGradGradGradGradGradGradGradGradGradGradGradGradGrad
 Berny optimization.
 Initialization pass.
                           ----------------------------
                           !    Initial Parameters    !
                           ! (Angstroms and Degrees)  !
 --------------------------                            --------------------------
 ! Name  Definition              Value          Derivative Info.                !
 --------------------------------------------------------------------------------
 ! R1    R(1,2)                  1.4038         calculate D2E/DX2 analytically  !
 ! R2    R(1,6)                  1.4038         calculate D2E/DX2 analytically  !
 ! R3    R(1,7)                  1.4774         calculate D2E/DX2 analytically  !
 ! R4    R(2,3)                  1.3908         calculate D2E/DX2 analytically  !
 ! R5    R(2,13)                 1.0853         calculate D2E/DX2 analytically  !
 ! R6    R(3,4)                  1.4018         calculate D2E/DX2 analytically  !
 ! R7    R(3,14)                 1.0853         calculate D2E/DX2 analytically  !
 ! R8    R(4,5)                  1.4018         calculate D2E/DX2 analytically  !
 ! R9    R(4,60)                 1.4892         calculate D2E/DX2 analytically  !
 ! R10   R(5,6)                  1.3908         calculate D2E/DX2 analytically  !
 ! R11   R(5,15)                 1.0853         calculate D2E/DX2 analytically  !
 ! R12   R(6,16)                 1.0853         calculate D2E/DX2 analytically  !
 ! R13   R(7,8)                  1.4012         calculate D2E/DX2 analytically  !
 ! R14   R(7,12)                 1.4012         calculate D2E/DX2 analytically  !
 ! R15   R(8,9)                  1.3861         calculate D2E/DX2 analytically  !
 ! R16   R(8,17)                 1.0826         calculate D2E/DX2 analytically  !
 ! R17   R(9,10)                 1.4168         calculate D2E/DX2 analytically  !
 ! R18   R(9,39)                 1.7553         calculate D2E/DX2 analytically  !
 ! R19   R(10,11)                1.4168         calculate D2E/DX2 analytically  !
 ! R20   R(10,19)                1.4619         calculate D2E/DX2 analytically  !
 ! R21   R(11,12)                1.3861         calculate D2E/DX2 analytically  !
 ! R22   R(11,38)                1.7553         calculate D2E/DX2 analytically  !
 ! R23   R(12,18)                1.0826         calculate D2E/DX2 analytically  !
 ! R24   R(19,20)                1.4658         calculate D2E/DX2 analytically  !
 ! R25   R(19,27)                1.4657         calculate D2E/DX2 analytically  !
 ! R26   R(20,21)                1.4156         calculate D2E/DX2 analytically  !
 ! R27   R(20,22)                1.4159         calculate D2E/DX2 analytically  !
 ! R28   R(21,23)                1.3896         calculate D2E/DX2 analytically  !
 ! R29   R(21,29)                1.7977         calculate D2E/DX2 analytically  !
 ! R30   R(22,24)                1.3895         calculate D2E/DX2 analytically  !
 ! R31   R(22,63)                1.7516         calculate D2E/DX2 analytically  !
 ! R32   R(23,25)                1.3909         calculate D2E/DX2 analytically  !
 ! R33   R(23,26)                1.0818         calculate D2E/DX2 analytically  !
 ! R34   R(24,25)                1.391          calculate D2E/DX2 analytically  !
 ! R35   R(24,64)                1.0818         calculate D2E/DX2 analytically  !
 ! R36   R(25,35)                1.7488         calculate D2E/DX2 analytically  !
 ! R37   R(27,28)                1.4159         calculate D2E/DX2 analytically  !
 ! R38   R(27,29)                1.4156         calculate D2E/DX2 analytically  !
 ! R39   R(28,30)                1.3895         calculate D2E/DX2 analytically  !
 ! R40   R(28,37)                1.7516         calculate D2E/DX2 analytically  !
 ! R41   R(29,31)                1.3896         calculate D2E/DX2 analytically  !
 ! R42   R(30,32)                1.391          calculate D2E/DX2 analytically  !
 ! R43   R(30,33)                1.0818         calculate D2E/DX2 analytically  !
 ! R44   R(31,32)                1.3909         calculate D2E/DX2 analytically  !
 ! R45   R(31,34)                1.0818         calculate D2E/DX2 analytically  !
 ! R46   R(32,36)                1.7488         calculate D2E/DX2 analytically  !
 ! R47   R(40,42)                1.4311         calculate D2E/DX2 analytically  !
 ! R48   R(40,43)                1.4441         calculate D2E/DX2 analytically  !
 ! R49   R(40,60)                1.4129         calculate D2E/DX2 analytically  !
 ! R50   R(41,44)                1.4441         calculate D2E/DX2 analytically  !
 ! R51   R(41,45)                1.4311         calculate D2E/DX2 analytically  !
 ! R52   R(41,60)                1.4129         calculate D2E/DX2 analytically  !
 ! R53   R(42,46)                1.3696         calculate D2E/DX2 analytically  !
 ! R54   R(42,47)                1.0834         calculate D2E/DX2 analytically  !
 ! R55   R(43,48)                1.4287         calculate D2E/DX2 analytically  !
 ! R56   R(43,61)                1.3969         calculate D2E/DX2 analytically  !
 ! R57   R(44,49)                1.4287         calculate D2E/DX2 analytically  !
 ! R58   R(44,61)                1.3969         calculate D2E/DX2 analytically  !
 ! R59   R(45,50)                1.0834         calculate D2E/DX2 analytically  !
 ! R60   R(45,51)                1.3696         calculate D2E/DX2 analytically  !
 ! R61   R(46,52)                1.4236         calculate D2E/DX2 analytically  !
 ! R62   R(46,53)                1.0856         calculate D2E/DX2 analytically  !
 ! R63   R(48,52)                1.368          calculate D2E/DX2 analytically  !
 ! R64   R(48,54)                1.0864         calculate D2E/DX2 analytically  !
 ! R65   R(49,55)                1.368          calculate D2E/DX2 analytically  !
 ! R66   R(49,56)                1.0864         calculate D2E/DX2 analytically  !
 ! R67   R(51,55)                1.4236         calculate D2E/DX2 analytically  !
 ! R68   R(51,57)                1.0856         calculate D2E/DX2 analytically  !
 ! R69   R(52,58)                1.0855         calculate D2E/DX2 analytically  !
 ! R70   R(55,59)                1.0855         calculate D2E/DX2 analytically  !
 ! R71   R(61,62)                1.0871         calculate D2E/DX2 analytically  !
 ! A1    A(2,1,6)              118.2141         calculate D2E/DX2 analytically  !
 ! A2    A(2,1,7)              120.893          calculate D2E/DX2 analytically  !
 ! A3    A(6,1,7)              120.8929         calculate D2E/DX2 analytically  !
 ! A4    A(1,2,3)              120.8408         calculate D2E/DX2 analytically  !
 ! A5    A(1,2,13)             119.6178         calculate D2E/DX2 analytically  !
 ! A6    A(3,2,13)             119.5225         calculate D2E/DX2 analytically  !
 ! A7    A(2,3,4)              120.9121         calculate D2E/DX2 analytically  !
 ! A8    A(2,3,14)             119.9657         calculate D2E/DX2 analytically  !
 ! A9    A(4,3,14)             119.121          calculate D2E/DX2 analytically  !
 ! A10   A(3,4,5)              118.2801         calculate D2E/DX2 analytically  !
 ! A11   A(3,4,60)             120.86           calculate D2E/DX2 analytically  !
 ! A12   A(5,4,60)             120.8599         calculate D2E/DX2 analytically  !
 ! A13   A(4,5,6)              120.9121         calculate D2E/DX2 analytically  !
 ! A14   A(4,5,15)             119.1209         calculate D2E/DX2 analytically  !
 ! A15   A(6,5,15)             119.9658         calculate D2E/DX2 analytically  !
 ! A16   A(1,6,5)              120.8408         calculate D2E/DX2 analytically  !
 ! A17   A(1,6,16)             119.6179         calculate D2E/DX2 analytically  !
 ! A18   A(5,6,16)             119.5224         calculate D2E/DX2 analytically  !
 ! A19   A(1,7,8)              120.9866         calculate D2E/DX2 analytically  !
 ! A20   A(1,7,12)             120.9866         calculate D2E/DX2 analytically  !
 ! A21   A(8,7,12)             118.0268         calculate D2E/DX2 analytically  !
 ! A22   A(7,8,9)              120.6507         calculate D2E/DX2 analytically  !
 ! A23   A(7,8,17)             120.2974         calculate D2E/DX2 analytically  !
 ! A24   A(9,8,17)             118.9851         calculate D2E/DX2 analytically  !
 ! A25   A(8,9,10)             122.9707         calculate D2E/DX2 analytically  !
 ! A26   A(8,9,39)             116.3373         calculate D2E/DX2 analytically  !
 ! A27   A(10,9,39)            120.5447         calculate D2E/DX2 analytically  !
 ! A28   A(9,10,11)            114.7304         calculate D2E/DX2 analytically  !
 ! A29   A(9,10,19)            122.6352         calculate D2E/DX2 analytically  !
 ! A30   A(11,10,19)           122.6344         calculate D2E/DX2 analytically  !
 ! A31   A(10,11,12)           122.971          calculate D2E/DX2 analytically  !
 ! A32   A(10,11,38)           120.5441         calculate D2E/DX2 analytically  !
 ! A33   A(12,11,38)           116.3378         calculate D2E/DX2 analytically  !
 ! A34   A(7,12,11)            120.6504         calculate D2E/DX2 analytically  !
 ! A35   A(7,12,18)            120.2975         calculate D2E/DX2 analytically  !
 ! A36   A(11,12,18)           118.9853         calculate D2E/DX2 analytically  !
 ! A37   A(10,19,20)           130.9286         calculate D2E/DX2 analytically  !
 ! A38   A(10,19,27)           130.9331         calculate D2E/DX2 analytically  !
 ! A39   A(20,19,27)            98.1383         calculate D2E/DX2 analytically  !
 ! A40   A(19,20,21)           122.4595         calculate D2E/DX2 analytically  !
 ! A41   A(19,20,22)           122.3247         calculate D2E/DX2 analytically  !
 ! A42   A(21,20,22)           115.2157         calculate D2E/DX2 analytically  !
 ! A43   A(20,21,23)           123.0658         calculate D2E/DX2 analytically  !
 ! A44   A(20,21,29)            98.4712         calculate D2E/DX2 analytically  !
 ! A45   A(23,21,29)           138.4625         calculate D2E/DX2 analytically  !
 ! A46   A(20,22,24)           123.0326         calculate D2E/DX2 analytically  !
 ! A47   A(20,22,63)           120.7193         calculate D2E/DX2 analytically  !
 ! A48   A(24,22,63)           116.1477         calculate D2E/DX2 analytically  !
 ! A49   A(21,23,25)           118.7675         calculate D2E/DX2 analytically  !
 ! A50   A(21,23,26)           120.3009         calculate D2E/DX2 analytically  !
 ! A51   A(25,23,26)           120.9185         calculate D2E/DX2 analytically  !
 ! A52   A(22,24,25)           118.7924         calculate D2E/DX2 analytically  !
 ! A53   A(22,24,64)           120.2913         calculate D2E/DX2 analytically  !
 ! A54   A(25,24,64)           120.9035         calculate D2E/DX2 analytically  !
 ! A55   A(23,25,24)           121.1254         calculate D2E/DX2 analytically  !
 ! A56   A(23,25,35)           119.4393         calculate D2E/DX2 analytically  !
 ! A57   A(24,25,35)           119.4353         calculate D2E/DX2 analytically  !
 ! A58   A(19,27,28)           122.3261         calculate D2E/DX2 analytically  !
 ! A59   A(19,27,29)           122.4585         calculate D2E/DX2 analytically  !
 ! A60   A(28,27,29)           115.2152         calculate D2E/DX2 analytically  !
 ! A61   A(27,28,30)           123.0328         calculate D2E/DX2 analytically  !
 ! A62   A(27,28,37)           120.7199         calculate D2E/DX2 analytically  !
 ! A63   A(30,28,37)           116.1469         calculate D2E/DX2 analytically  !
 ! A64   A(21,29,27)            98.4725         calculate D2E/DX2 analytically  !
 ! A65   A(21,29,31)           138.4611         calculate D2E/DX2 analytically  !
 ! A66   A(27,29,31)           123.0659         calculate D2E/DX2 analytically  !
 ! A67   A(28,30,32)           118.7928         calculate D2E/DX2 analytically  !
 ! A68   A(28,30,33)           120.291          calculate D2E/DX2 analytically  !
 ! A69   A(32,30,33)           120.9034         calculate D2E/DX2 analytically  !
 ! A70   A(29,31,32)           118.7678         calculate D2E/DX2 analytically  !
 ! A71   A(29,31,34)           120.3007         calculate D2E/DX2 analytically  !
 ! A72   A(32,31,34)           120.9183         calculate D2E/DX2 analytically  !
 ! A73   A(30,32,31)           121.1248         calculate D2E/DX2 analytically  !
 ! A74   A(30,32,36)           119.4358         calculate D2E/DX2 analytically  !
 ! A75   A(31,32,36)           119.4393         calculate D2E/DX2 analytically  !
 ! A76   A(42,40,43)           117.8874         calculate D2E/DX2 analytically  !
 ! A77   A(42,40,60)           122.5945         calculate D2E/DX2 analytically  !
 ! A78   A(43,40,60)           119.5085         calculate D2E/DX2 analytically  !
 ! A79   A(44,41,45)           117.8874         calculate D2E/DX2 analytically  !
 ! A80   A(44,41,60)           119.5084         calculate D2E/DX2 analytically  !
 ! A81   A(45,41,60)           122.5945         calculate D2E/DX2 analytically  !
 ! A82   A(40,42,46)           121.1787         calculate D2E/DX2 analytically  !
 ! A83   A(40,42,47)           118.7972         calculate D2E/DX2 analytically  !
 ! A84   A(46,42,47)           120.0231         calculate D2E/DX2 analytically  !
 ! A85   A(40,43,48)           119.0862         calculate D2E/DX2 analytically  !
 ! A86   A(40,43,61)           119.4588         calculate D2E/DX2 analytically  !
 ! A87   A(48,43,61)           121.4536         calculate D2E/DX2 analytically  !
 ! A88   A(41,44,49)           119.0863         calculate D2E/DX2 analytically  !
 ! A89   A(41,44,61)           119.4588         calculate D2E/DX2 analytically  !
 ! A90   A(49,44,61)           121.4536         calculate D2E/DX2 analytically  !
 ! A91   A(41,45,50)           118.7972         calculate D2E/DX2 analytically  !
 ! A92   A(41,45,51)           121.1787         calculate D2E/DX2 analytically  !
 ! A93   A(50,45,51)           120.0231         calculate D2E/DX2 analytically  !
 ! A94   A(42,46,52)           120.7406         calculate D2E/DX2 analytically  !
 ! A95   A(42,46,53)           119.8193         calculate D2E/DX2 analytically  !
 ! A96   A(52,46,53)           119.4392         calculate D2E/DX2 analytically  !
 ! A97   A(43,48,52)           121.0671         calculate D2E/DX2 analytically  !
 ! A98   A(43,48,54)           118.2107         calculate D2E/DX2 analytically  !
 ! A99   A(52,48,54)           120.7219         calculate D2E/DX2 analytically  !
 ! A100  A(44,49,55)           121.067          calculate D2E/DX2 analytically  !
 ! A101  A(44,49,56)           118.2108         calculate D2E/DX2 analytically  !
 ! A102  A(55,49,56)           120.7219         calculate D2E/DX2 analytically  !
 ! A103  A(45,51,55)           120.7406         calculate D2E/DX2 analytically  !
 ! A104  A(45,51,57)           119.8193         calculate D2E/DX2 analytically  !
 ! A105  A(55,51,57)           119.4392         calculate D2E/DX2 analytically  !
 ! A106  A(46,52,48)           120.0253         calculate D2E/DX2 analytically  !
 ! A107  A(46,52,58)           119.6421         calculate D2E/DX2 analytically  !
 ! A108  A(48,52,58)           120.331          calculate D2E/DX2 analytically  !
 ! A109  A(49,55,51)           120.0254         calculate D2E/DX2 analytically  !
 ! A110  A(49,55,59)           120.3311         calculate D2E/DX2 analytically  !
 ! A111  A(51,55,59)           119.6421         calculate D2E/DX2 analytically  !
 ! A112  A(4,60,40)            119.7808         calculate D2E/DX2 analytically  !
 ! A113  A(4,60,41)            119.7808         calculate D2E/DX2 analytically  !
 ! A114  A(40,60,41)           120.4385         calculate D2E/DX2 analytically  !
 ! A115  A(43,61,44)           121.6223         calculate D2E/DX2 analytically  !
 ! A116  A(43,61,62)           119.1888         calculate D2E/DX2 analytically  !
 ! A117  A(44,61,62)           119.1889         calculate D2E/DX2 analytically  !
 ! D1    D(6,1,2,3)              0.0131         calculate D2E/DX2 analytically  !
 ! D2    D(6,1,2,13)           178.4234         calculate D2E/DX2 analytically  !
 ! D3    D(7,1,2,3)           -179.9872         calculate D2E/DX2 analytically  !
 ! D4    D(7,1,2,13)            -1.5769         calculate D2E/DX2 analytically  !
 ! D5    D(2,1,6,5)              0.0131         calculate D2E/DX2 analytically  !
 ! D6    D(2,1,6,16)           178.4234         calculate D2E/DX2 analytically  !
 ! D7    D(7,1,6,5)           -179.9866         calculate D2E/DX2 analytically  !
 ! D8    D(7,1,6,16)            -1.5763         calculate D2E/DX2 analytically  !
 ! D9    D(2,1,7,8)            -34.7847         calculate D2E/DX2 analytically  !
 ! D10   D(2,1,7,12)           145.2156         calculate D2E/DX2 analytically  !
 ! D11   D(6,1,7,8)            145.215          calculate D2E/DX2 analytically  !
 ! D12   D(6,1,7,12)           -34.7847         calculate D2E/DX2 analytically  !
 ! D13   D(1,2,3,4)             -0.0264         calculate D2E/DX2 analytically  !
 ! D14   D(1,2,3,14)           179.5702         calculate D2E/DX2 analytically  !
 ! D15   D(13,2,3,4)          -178.4383         calculate D2E/DX2 analytically  !
 ! D16   D(13,2,3,14)            1.1583         calculate D2E/DX2 analytically  !
 ! D17   D(2,3,4,5)              0.0132         calculate D2E/DX2 analytically  !
 ! D18   D(2,3,4,60)          -179.9867         calculate D2E/DX2 analytically  !
 ! D19   D(14,3,4,5)          -179.5868         calculate D2E/DX2 analytically  !
 ! D20   D(14,3,4,60)            0.4133         calculate D2E/DX2 analytically  !
 ! D21   D(3,4,5,6)              0.0131         calculate D2E/DX2 analytically  !
 ! D22   D(3,4,5,15)          -179.5869         calculate D2E/DX2 analytically  !
 ! D23   D(60,4,5,6)          -179.9871         calculate D2E/DX2 analytically  !
 ! D24   D(60,4,5,15)            0.413          calculate D2E/DX2 analytically  !
 ! D25   D(3,4,60,40)          109.8281         calculate D2E/DX2 analytically  !
 ! D26   D(3,4,60,41)          -70.1719         calculate D2E/DX2 analytically  !
 ! D27   D(5,4,60,40)          -70.1717         calculate D2E/DX2 analytically  !
 ! D28   D(5,4,60,41)          109.8282         calculate D2E/DX2 analytically  !
 ! D29   D(4,5,6,1)             -0.0264         calculate D2E/DX2 analytically  !
 ! D30   D(4,5,6,16)          -178.4382         calculate D2E/DX2 analytically  !
 ! D31   D(15,5,6,1)           179.5702         calculate D2E/DX2 analytically  !
 ! D32   D(15,5,6,16)            1.1584         calculate D2E/DX2 analytically  !
 ! D33   D(1,7,8,9)           -179.9958         calculate D2E/DX2 analytically  !
 ! D34   D(1,7,8,17)            -2.9985         calculate D2E/DX2 analytically  !
 ! D35   D(12,7,8,9)             0.0039         calculate D2E/DX2 analytically  !
 ! D36   D(12,7,8,17)          177.0011         calculate D2E/DX2 analytically  !
 ! D37   D(1,7,12,11)         -179.9972         calculate D2E/DX2 analytically  !
 ! D38   D(1,7,12,18)           -2.999          calculate D2E/DX2 analytically  !
 ! D39   D(8,7,12,11)            0.0032         calculate D2E/DX2 analytically  !
 ! D40   D(8,7,12,18)          177.0013         calculate D2E/DX2 analytically  !
 ! D41   D(7,8,9,10)            -0.0072         calculate D2E/DX2 analytically  !
 ! D42   D(7,8,9,39)           175.5954         calculate D2E/DX2 analytically  !
 ! D43   D(17,8,9,10)         -177.0434         calculate D2E/DX2 analytically  !
 ! D44   D(17,8,9,39)           -1.4408         calculate D2E/DX2 analytically  !
 ! D45   D(8,9,10,11)            0.0032         calculate D2E/DX2 analytically  !
 ! D46   D(8,9,10,19)         -179.999          calculate D2E/DX2 analytically  !
 ! D47   D(39,9,10,11)        -175.4205         calculate D2E/DX2 analytically  !
 ! D48   D(39,9,10,19)           4.5773         calculate D2E/DX2 analytically  !
 ! D49   D(9,10,11,12)           0.0041         calculate D2E/DX2 analytically  !
 ! D50   D(9,10,11,38)        -175.4227         calculate D2E/DX2 analytically  !
 ! D51   D(19,10,11,12)       -179.9937         calculate D2E/DX2 analytically  !
 ! D52   D(19,10,11,38)          4.5795         calculate D2E/DX2 analytically  !
 ! D53   D(9,10,19,20)          46.9988         calculate D2E/DX2 analytically  !
 ! D54   D(9,10,19,27)        -132.9992         calculate D2E/DX2 analytically  !
 ! D55   D(11,10,19,20)       -133.0036         calculate D2E/DX2 analytically  !
 ! D56   D(11,10,19,27)         46.9984         calculate D2E/DX2 analytically  !
 ! D57   D(10,11,12,7)          -0.0074         calculate D2E/DX2 analytically  !
 ! D58   D(10,11,12,18)       -177.0444         calculate D2E/DX2 analytically  !
 ! D59   D(38,11,12,7)         175.5982         calculate D2E/DX2 analytically  !
 ! D60   D(38,11,12,18)         -1.4389         calculate D2E/DX2 analytically  !
 ! D61   D(10,19,20,21)       -179.9998         calculate D2E/DX2 analytically  !
 ! D62   D(10,19,20,22)          0.1037         calculate D2E/DX2 analytically  !
 ! D63   D(27,19,20,21)         -0.0013         calculate D2E/DX2 analytically  !
 ! D64   D(27,19,20,22)       -179.8978         calculate D2E/DX2 analytically  !
 ! D65   D(10,19,27,28)          0.1016         calculate D2E/DX2 analytically  !
 ! D66   D(10,19,27,29)        179.9998         calculate D2E/DX2 analytically  !
 ! D67   D(20,19,27,28)       -179.8969         calculate D2E/DX2 analytically  !
 ! D68   D(20,19,27,29)          0.0013         calculate D2E/DX2 analytically  !
 ! D69   D(19,20,21,23)       -179.7866         calculate D2E/DX2 analytically  !
 ! D70   D(19,20,21,29)          0.0009         calculate D2E/DX2 analytically  !
 ! D71   D(22,20,21,23)          0.1167         calculate D2E/DX2 analytically  !
 ! D72   D(22,20,21,29)        179.9042         calculate D2E/DX2 analytically  !
 ! D73   D(19,20,22,24)       -179.9557         calculate D2E/DX2 analytically  !
 ! D74   D(19,20,22,63)          3.8308         calculate D2E/DX2 analytically  !
 ! D75   D(21,20,22,24)          0.1408         calculate D2E/DX2 analytically  !
 ! D76   D(21,20,22,63)       -176.0726         calculate D2E/DX2 analytically  !
 ! D77   D(20,21,23,25)         -0.2499         calculate D2E/DX2 analytically  !
 ! D78   D(20,21,23,26)       -178.945          calculate D2E/DX2 analytically  !
 ! D79   D(29,21,23,25)       -179.9329         calculate D2E/DX2 analytically  !
 ! D80   D(29,21,23,26)          1.372          calculate D2E/DX2 analytically  !
 ! D81   D(20,21,29,27)          0.0            calculate D2E/DX2 analytically  !
 ! D82   D(20,21,29,31)        179.7286         calculate D2E/DX2 analytically  !
 ! D83   D(23,21,29,27)        179.7314         calculate D2E/DX2 analytically  !
 ! D84   D(23,21,29,31)         -0.54           calculate D2E/DX2 analytically  !
 ! D85   D(20,22,24,25)         -0.2551         calculate D2E/DX2 analytically  !
 ! D86   D(20,22,24,64)       -178.9633         calculate D2E/DX2 analytically  !
 ! D87   D(63,22,24,25)        176.1187         calculate D2E/DX2 analytically  !
 ! D88   D(63,22,24,64)         -2.5894         calculate D2E/DX2 analytically  !
 ! D89   D(21,23,25,24)          0.1293         calculate D2E/DX2 analytically  !
 ! D90   D(21,23,25,35)       -179.8736         calculate D2E/DX2 analytically  !
 ! D91   D(26,23,25,24)        178.816          calculate D2E/DX2 analytically  !
 ! D92   D(26,23,25,35)         -1.1869         calculate D2E/DX2 analytically  !
 ! D93   D(22,24,25,23)          0.1137         calculate D2E/DX2 analytically  !
 ! D94   D(22,24,25,35)       -179.8834         calculate D2E/DX2 analytically  !
 ! D95   D(64,24,25,23)        178.8137         calculate D2E/DX2 analytically  !
 ! D96   D(64,24,25,35)         -1.1834         calculate D2E/DX2 analytically  !
 ! D97   D(19,27,28,30)       -179.9556         calculate D2E/DX2 analytically  !
 ! D98   D(19,27,28,37)          3.8296         calculate D2E/DX2 analytically  !
 ! D99   D(29,27,28,30)          0.1394         calculate D2E/DX2 analytically  !
 ! D100  D(29,27,28,37)       -176.0755         calculate D2E/DX2 analytically  !
 ! D101  D(19,27,29,21)         -0.0009         calculate D2E/DX2 analytically  !
 ! D102  D(19,27,29,31)       -179.7861         calculate D2E/DX2 analytically  !
 ! D103  D(28,27,29,21)        179.9041         calculate D2E/DX2 analytically  !
 ! D104  D(28,27,29,31)          0.1188         calculate D2E/DX2 analytically  !
 ! D105  D(27,28,30,32)         -0.2551         calculate D2E/DX2 analytically  !
 ! D106  D(27,28,30,33)       -178.9633         calculate D2E/DX2 analytically  !
 ! D107  D(37,28,30,32)        176.1202         calculate D2E/DX2 analytically  !
 ! D108  D(37,28,30,33)         -2.588          calculate D2E/DX2 analytically  !
 ! D109  D(21,29,31,32)       -179.9309         calculate D2E/DX2 analytically  !
 ! D110  D(21,29,31,34)          1.3748         calculate D2E/DX2 analytically  !
 ! D111  D(27,29,31,32)         -0.2512         calculate D2E/DX2 analytically  !
 ! D112  D(27,29,31,34)       -178.9456         calculate D2E/DX2 analytically  !
 ! D113  D(28,30,32,31)          0.1146         calculate D2E/DX2 analytically  !
 ! D114  D(28,30,32,36)       -179.883          calculate D2E/DX2 analytically  !
 ! D115  D(33,30,32,31)        178.8146         calculate D2E/DX2 analytically  !
 ! D116  D(33,30,32,36)         -1.183          calculate D2E/DX2 analytically  !
 ! D117  D(29,31,32,30)          0.1291         calculate D2E/DX2 analytically  !
 ! D118  D(29,31,32,36)       -179.8733         calculate D2E/DX2 analytically  !
 ! D119  D(34,31,32,30)        178.815          calculate D2E/DX2 analytically  !
 ! D120  D(34,31,32,36)         -1.1873         calculate D2E/DX2 analytically  !
 ! D121  D(43,40,42,46)         -1.1999         calculate D2E/DX2 analytically  !
 ! D122  D(43,40,42,47)        178.4375         calculate D2E/DX2 analytically  !
 ! D123  D(60,40,42,46)        179.9399         calculate D2E/DX2 analytically  !
 ! D124  D(60,40,42,47)         -0.4227         calculate D2E/DX2 analytically  !
 ! D125  D(42,40,43,48)          1.3375         calculate D2E/DX2 analytically  !
 ! D126  D(42,40,43,61)       -178.2535         calculate D2E/DX2 analytically  !
 ! D127  D(60,40,43,48)       -179.7659         calculate D2E/DX2 analytically  !
 ! D128  D(60,40,43,61)          0.6431         calculate D2E/DX2 analytically  !
 ! D129  D(42,40,60,4)          -1.4764         calculate D2E/DX2 analytically  !
 ! D130  D(42,40,60,41)        178.5236         calculate D2E/DX2 analytically  !
 ! D131  D(43,40,60,4)         179.6812         calculate D2E/DX2 analytically  !
 ! D132  D(43,40,60,41)         -0.3188         calculate D2E/DX2 analytically  !
 ! D133  D(45,41,44,49)          1.3374         calculate D2E/DX2 analytically  !
 ! D134  D(45,41,44,61)       -178.2536         calculate D2E/DX2 analytically  !
 ! D135  D(60,41,44,49)       -179.766          calculate D2E/DX2 analytically  !
 ! D136  D(60,41,44,61)          0.6431         calculate D2E/DX2 analytically  !
 ! D137  D(44,41,45,50)        178.4375         calculate D2E/DX2 analytically  !
 ! D138  D(44,41,45,51)         -1.1998         calculate D2E/DX2 analytically  !
 ! D139  D(60,41,45,50)         -0.4228         calculate D2E/DX2 analytically  !
 ! D140  D(60,41,45,51)        179.94           calculate D2E/DX2 analytically  !
 ! D141  D(44,41,60,4)         179.6813         calculate D2E/DX2 analytically  !
 ! D142  D(44,41,60,40)         -0.3187         calculate D2E/DX2 analytically  !
 ! D143  D(45,41,60,4)          -1.4763         calculate D2E/DX2 analytically  !
 ! D144  D(45,41,60,40)        178.5237         calculate D2E/DX2 analytically  !
 ! D145  D(40,42,46,52)          0.2566         calculate D2E/DX2 analytically  !
 ! D146  D(40,42,46,53)        179.9139         calculate D2E/DX2 analytically  !
 ! D147  D(47,42,46,52)       -179.3764         calculate D2E/DX2 analytically  !
 ! D148  D(47,42,46,53)          0.2809         calculate D2E/DX2 analytically  !
 ! D149  D(40,43,48,52)         -0.5613         calculate D2E/DX2 analytically  !
 ! D150  D(40,43,48,54)        179.6329         calculate D2E/DX2 analytically  !
 ! D151  D(61,43,48,52)        179.0213         calculate D2E/DX2 analytically  !
 ! D152  D(61,43,48,54)         -0.7845         calculate D2E/DX2 analytically  !
 ! D153  D(40,43,61,44)         -0.3204         calculate D2E/DX2 analytically  !
 ! D154  D(40,43,61,62)        179.6796         calculate D2E/DX2 analytically  !
 ! D155  D(48,43,61,44)       -179.9014         calculate D2E/DX2 analytically  !
 ! D156  D(48,43,61,62)          0.0986         calculate D2E/DX2 analytically  !
 ! D157  D(41,44,49,55)         -0.5613         calculate D2E/DX2 analytically  !
 ! D158  D(41,44,49,56)        179.6329         calculate D2E/DX2 analytically  !
 ! D159  D(61,44,49,55)        179.0212         calculate D2E/DX2 analytically  !
 ! D160  D(61,44,49,56)         -0.7846         calculate D2E/DX2 analytically  !
 ! D161  D(41,44,61,43)         -0.3204         calculate D2E/DX2 analytically  !
 ! D162  D(41,44,61,62)        179.6796         calculate D2E/DX2 analytically  !
 ! D163  D(49,44,61,43)       -179.9014         calculate D2E/DX2 analytically  !
 ! D164  D(49,44,61,62)          0.0986         calculate D2E/DX2 analytically  !
 ! D165  D(41,45,51,55)          0.2565         calculate D2E/DX2 analytically  !
 ! D166  D(41,45,51,57)        179.9138         calculate D2E/DX2 analytically  !
 ! D167  D(50,45,51,55)       -179.3763         calculate D2E/DX2 analytically  !
 ! D168  D(50,45,51,57)          0.281          calculate D2E/DX2 analytically  !
 ! D169  D(42,46,52,48)          0.5732         calculate D2E/DX2 analytically  !
 ! D170  D(42,46,52,58)       -179.8738         calculate D2E/DX2 analytically  !
 ! D171  D(53,46,52,48)       -179.0854         calculate D2E/DX2 analytically  !
 ! D172  D(53,46,52,58)          0.4676         calculate D2E/DX2 analytically  !
 ! D173  D(43,48,52,46)         -0.4056         calculate D2E/DX2 analytically  !
 ! D174  D(43,48,52,58)       -179.9554         calculate D2E/DX2 analytically  !
 ! D175  D(54,48,52,46)        179.3954         calculate D2E/DX2 analytically  !
 ! D176  D(54,48,52,58)         -0.1545         calculate D2E/DX2 analytically  !
 ! D177  D(44,49,55,51)         -0.4055         calculate D2E/DX2 analytically  !
 ! D178  D(44,49,55,59)       -179.9554         calculate D2E/DX2 analytically  !
 ! D179  D(56,49,55,51)        179.3954         calculate D2E/DX2 analytically  !
 ! D180  D(56,49,55,59)         -0.1545         calculate D2E/DX2 analytically  !
 ! D181  D(45,51,55,49)          0.5732         calculate D2E/DX2 analytically  !
 ! D182  D(45,51,55,59)       -179.8737         calculate D2E/DX2 analytically  !
 ! D183  D(57,51,55,49)       -179.0855         calculate D2E/DX2 analytically  !
 ! D184  D(57,51,55,59)          0.4676         calculate D2E/DX2 analytically  !
 --------------------------------------------------------------------------------
 Trust Radius=3.00D-01 FncErr=1.00D-07 GrdErr=1.00D-06 EigMax=2.50D+02 EigMin=1.00D-04
 Number of steps in this run=    382 maximum allowed number of steps=    384.
 Step   0 in ReCalcFC= 5 IGetFC= 4 compute analytic Hessian.
 GradGradGradGradGradGradGradGradGradGradGradGradGradGradGradGradGradGrad

 Leave Link  103 at Tue Aug 19 16:00:47 2025, MaxMem=  7516192768 cpu:               0.7 elap:               0.1
 (Enter /share/apps/softwares/gaussian/16/g16/l202.exe)
 Stoichiometry    C39H19Cl6(2)
 Framework group  C1[X(C39H19Cl6)]
 Deg. of freedom   186
 Full point group                 C1      NOp   1
 Largest Abelian subgroup         C1      NOp   1
 Largest concise Abelian subgroup C1      NOp   1
                         Standard orientation:                         
 ---------------------------------------------------------------------
 Center     Atomic      Atomic             Coordinates (Angstroms)
 Number     Number       Type             X           Y           Z
 ---------------------------------------------------------------------
      1          6           0       -2.188161   -0.000034   -0.000048
      2          6           0       -2.908926   -1.144373    0.376301
      3          6           0       -4.299694   -1.143243    0.375667
      4          6           0       -5.018752   -0.000008   -0.000007
      5          6           0       -4.299683    1.143214   -0.375702
      6          6           0       -2.908915    1.144317   -0.376377
      7          6           0       -0.710762   -0.000044   -0.000063
      8          6           0        0.010636   -0.723148    0.959143
      9          6           0        1.396739   -0.718195    0.952692
     10          6           0        2.160776   -0.000039   -0.000072
     11          6           0        1.396726    0.718107   -0.952836
     12          6           0        0.010626    0.723058   -0.959280
     13          1           0       -2.375011   -2.049685    0.646696
     14          1           0       -4.842617   -2.038071    0.662537
     15          1           0       -4.842598    2.038052   -0.662556
     16          1           0       -2.374992    2.049621   -0.646786
     17          1           0       -0.508441   -1.255264    1.746252
     18          1           0       -0.508457    1.255180   -1.746380
     19          6           0        3.622628    0.000015   -0.000051
     20          6           0        4.582917   -1.101317    0.115624
     21          6           0        5.983048   -0.893925    0.093874
     22          6           0        4.174993   -2.449976    0.255072
     23          6           0        6.904467   -1.928801    0.198209
     24          6           0        5.072298   -3.505043    0.366762
     25          6           0        6.435700   -3.231128    0.335718
     26          1           0        7.965452   -1.717507    0.193530
     27          6           0        4.582914    1.101335   -0.115652
     28          6           0        4.175035    2.450002   -0.255112
     29          6           0        5.983051    0.893912   -0.093848
     30          6           0        5.072370    3.505051   -0.366734
     31          6           0        6.904494    1.928771   -0.198101
     32          6           0        6.435769    3.231113   -0.335608
     33          1           0        4.711676    4.521177   -0.454704
     34          1           0        7.965475    1.717451   -0.193373
     35         17           0        7.579912   -4.546628    0.471827
     36         17           0        7.580020    4.546587   -0.471622
     37         17           0        2.478604    2.882406   -0.196629
     38         17           0        2.184660    1.563089   -2.274285
     39         17           0        2.184667   -1.563123    2.274181
     40          6           0       -7.209756    0.755359    0.966144
     41          6           0       -7.209807   -0.755327   -0.966083
     42          6           0       -6.546526    1.511711    1.983979
     43          6           0       -8.653850    0.756663    0.956462
     44          6           0       -8.653900   -0.756597   -0.956353
     45          6           0       -6.546628   -1.511694   -1.983940
     46          6           0       -7.255876    2.234974    2.905652
     47          1           0       -5.463837    1.500387    2.020645
     48          6           0       -9.354242    1.527595    1.934331
     49          6           0       -9.354343   -1.527512   -1.934198
     50          1           0       -5.463939   -1.500395   -2.020643
     51          6           0       -7.256026   -2.234940   -2.905590
     52          6           0       -8.679120    2.250026    2.879745
     53          1           0       -6.730088    2.799819    3.669282
     54          1           0      -10.440355    1.523166    1.910208
     55          6           0       -8.679270   -2.249958   -2.879635
     56          1           0      -10.440455   -1.523058   -1.910038
     57          1           0       -6.730277   -2.799798   -3.669237
     58          1           0       -9.223400    2.831097    3.617620
     59          1           0       -9.223588   -2.831016   -3.617493
     60          6           0       -6.507995    0.000009    0.000019
     61          6           0       -9.335125    0.000041    0.000066
     62          1           0      -10.422180    0.000054    0.000084
     63         17           0        2.478551   -2.882323    0.196447
     64          1           0        4.711579   -4.521166    0.454719
 ---------------------------------------------------------------------
 Rotational constants (GHZ):           0.1064460           0.0215881           0.0195389
 Leave Link  202 at Tue Aug 19 16:00:48 2025, MaxMem=  7516192768 cpu:               1.3 elap:               0.1
 (Enter /share/apps/softwares/gaussian/16/g16/l301.exe)
 Standard basis: 6-31G(d,p) (6D, 7F)
 Ernie: Thresh=  0.10000D-02 Tol=  0.10000D-05 Strict=F.
 There are   794 symmetry adapted cartesian basis functions of A   symmetry.
 There are   794 symmetry adapted basis functions of A   symmetry.
   794 basis functions,  1537 primitive gaussians,   794 cartesian basis functions
   178 alpha electrons      177 beta electrons
       nuclear repulsion energy      6027.5796831528 Hartrees.
 IExCor=  402 DFT=T Ex+Corr=B3LYP ExCW=0 ScaHFX=  0.200000
 ScaDFX=  0.800000  0.720000  1.000000  0.810000 ScalE2=  1.000000  1.000000
 IRadAn=      5 IRanWt=     -1 IRanGd=            0 ICorTp=0 IEmpDi=141
 NAtoms=   64 NActive=   64 NUniq=   64 SFac= 1.00D+00 NAtFMM=   60 NAOKFM=T Big=T
 Integral buffers will be    131072 words long.
 Raffenetti 2 integral format.
 Two-electron integral symmetry is turned on.
 R6Disp:  Grimme-D3(BJ) Dispersion energy=       -0.2076960564 Hartrees.
 Nuclear repulsion after empirical dispersion term =     6027.3719870964 Hartrees.
 Leave Link  301 at Tue Aug 19 16:00:49 2025, MaxMem=  7516192768 cpu:               2.9 elap:               0.3
 (Enter /share/apps/softwares/gaussian/16/g16/l302.exe)
 NPDir=0 NMtPBC=     1 NCelOv=     1 NCel=       1 NClECP=     1 NCelD=      1
         NCelK=      1 NCelE2=     1 NClLst=     1 CellRange=     0.0.
 One-electron integrals computed using PRISM.
 One-electron integral symmetry used in STVInt
 NBasis=   794 RedAO= T EigKep=  1.81D-04  NBF=   794
 NBsUse=   794 1.00D-06 EigRej= -1.00D+00 NBFU=   794
 Precomputing XC quadrature grid using
 IXCGrd= 4 IRadAn=           5 IRanWt=          -1 IRanGd=           0 AccXCQ= 0.00D+00.
 Generated NRdTot=       0 NPtTot=           0 NUsed=           0 NTot=          32
 NSgBfM=   718   717   717   717   718 MxSgAt=    64 MxSgA2=    64.
 Leave Link  302 at Tue Aug 19 16:00:51 2025, MaxMem=  7516192768 cpu:              32.6 elap:               1.6
 (Enter /share/apps/softwares/gaussian/16/g16/l303.exe)
 DipDrv:  MaxL=1.
 Leave Link  303 at Tue Aug 19 16:00:52 2025, MaxMem=  7516192768 cpu:               2.9 elap:               0.2
 (Enter /share/apps/softwares/gaussian/16/g16/l401.exe)
 ExpMin= 1.43D-01 ExpMax= 2.52D+04 ExpMxC= 3.78D+03 IAcc=3 IRadAn=         5 AccDes= 0.00D+00
 Harris functional with IExCor=  402 and IRadAn=       5 diagonalized for initial guess.
 HarFok:  IExCor=  402 AccDes= 0.00D+00 IRadAn=         5 IDoV= 1 UseB2=F ITyADJ=14
 ICtDFT=  3500011 ScaDFX=  1.000000  1.000000  1.000000  1.000000
 FoFCou: FMM=F IPFlag=           0 FMFlag=      100000 FMFlg1=        2001
         NFxFlg=           0 DoJE=T BraDBF=F KetDBF=T FulRan=T
         wScrn=  0.000000 ICntrl=       500 IOpCl=  0 I1Cent=   200000004 NGrid=           0
         NMat0=    1 NMatS0=      1 NMatT0=    0 NMatD0=    1 NMtDS0=    0 NMtDT0=    0
 Petite list used in FoFCou.
 Harris En= -4258.41506095809    
 JPrj=0 DoOrth=F DoCkMO=F.
 Initial guess <Sx>= 0.0000 <Sy>= 0.0000 <Sz>= 0.5000 <S**2>= 0.7500 S= 0.5000
 Leave Link  401 at Tue Aug 19 16:00:57 2025, MaxMem=  7516192768 cpu:              89.8 elap:               4.0
 (Enter /share/apps/softwares/gaussian/16/g16/l502.exe)
 Integral symmetry usage will be decided dynamically.
 UHF open shell SCF:
 Using DIIS extrapolation, IDIIS=  1040.
 NGot=  7516192768 LenX=  7514903545 LenY=  7514272315
 Requested convergence on RMS density matrix=1.00D-08 within 128 cycles.
 Requested convergence on MAX density matrix=1.00D-06.
 Requested convergence on             energy=1.00D-06.
 No special actions if energy rises.
 Fock matrices will be formed incrementally for  20 cycles.
 Integral accuracy reduced to 1.0D-05 until final iterations.

 Cycle   1  Pass 0  IDiag  1:
 FoFJK:  IHMeth= 1 ICntrl=       0 DoSepK=F KAlg= 0 I1Cent=           0 FoldK=F
 IRaf= 660000000 NMat=       1 IRICut=       1 DoRegI=T DoRafI=F ISym2E= 0 IDoP0=0 IntGTp=1.
 FoFCou: FMM=T IPFlag=           0 FMFlag=      100000 FMFlg1=        2001
         NFxFlg=           0 DoJE=F BraDBF=F KetDBF=F FulRan=T
         wScrn=  0.000000 ICntrl=         0 IOpCl=  1 I1Cent=           0 NGrid=           0
         NMat0=    1 NMatS0=      1 NMatT0=    0 NMatD0=    1 NMtDS0=    0 NMtDT0=    0
 Symmetry not used in FoFCou.
 FMM levels:  10  Number of levels for PrismC:   9
 E= -4257.46063926778    
 DIIS: error= 4.17D-02 at cycle   1 NSaved=   1.
 NSaved= 1 IEnMin= 1 EnMin= -4257.46063926778     IErMin= 1 ErrMin= 4.17D-02
 ErrMax= 4.17D-02  0.00D+00 EMaxC= 1.00D-01 BMatC= 4.35D+00 BMatP= 4.35D+00
 IDIUse=3 WtCom= 5.83D-01 WtEn= 4.17D-01
 Coeff-Com:  0.100D+01
 Coeff-En:   0.100D+01
 Coeff:      0.100D+01
 Gap=    -0.223 Goal=   None    Shift=    0.000
 Gap=     0.492 Goal=   None    Shift=    0.000
 GapD=   -0.223 DampG=0.250 DampE=0.500 DampFc=0.2500 IDamp=-1.
 Damping current iteration by 2.50D-01
 RMSDP=1.23D-02 MaxDP=9.96D-01              OVMax= 9.56D-01

 Cycle   2  Pass 0  IDiag  1:
 RMSU=  3.07D-03    CP:  9.91D-01
 E= -4257.19826783446     Delta-E=        0.262371433317 Rises=F Damp=T
 DIIS: error= 1.86D-02 at cycle   2 NSaved=   2.
 NSaved= 2 IEnMin= 1 EnMin= -4257.46063926778     IErMin= 2 ErrMin= 1.86D-02
 ErrMax= 1.86D-02  0.00D+00 EMaxC= 1.00D-01 BMatC= 1.30D+00 BMatP= 4.35D+00
 IDIUse=3 WtCom= 8.14D-01 WtEn= 1.86D-01
 Coeff-Com: -0.760D-01 0.108D+01
 Coeff-En:   0.612D+00 0.388D+00
 Coeff:      0.518D-01 0.948D+00
 Gap=     0.135 Goal=   None    Shift=    0.000
 Gap=     0.118 Goal=   None    Shift=    0.000
 RMSDP=5.49D-03 MaxDP=2.66D-01 DE= 2.62D-01 OVMax= 9.99D-01

 Cycle   3  Pass 0  IDiag  1:
 RMSU=  4.83D-03    CP:  9.35D-01  1.92D-01
 E= -4238.24014179941     Delta-E=       18.958126035053 Rises=F Damp=F
 DIIS: error= 8.22D-02 at cycle   3 NSaved=   3.
 NSaved= 3 IEnMin= 1 EnMin= -4257.46063926778     IErMin= 2 ErrMin= 1.86D-02
 ErrMax= 8.22D-02  0.00D+00 EMaxC= 1.00D-01 BMatC= 2.62D+01 BMatP= 1.30D+00
 IDIUse=2 WtCom= 0.00D+00 WtEn= 1.00D+00
 Rare condition: small coef for last iteration:  0.000D+00
 Coeff-En:   0.552D+00 0.407D+00 0.411D-01
 Coeff:      0.552D+00 0.407D+00 0.411D-01
 Gap=     0.234 Goal=   None    Shift=    0.000
 Gap=     0.070 Goal=   None    Shift=    0.000
 RMSDP=4.61D-03 MaxDP=2.26D-01 DE= 1.90D+01 OVMax= 9.97D-01

 Cycle   4  Pass 0  IDiag  1:
 RMSU=  2.81D-03    CP:  9.55D-01  3.77D-01  2.54D-01
 E= -4257.92427515895     Delta-E=      -19.684133359537 Rises=F Damp=F
 DIIS: error= 2.69D-02 at cycle   4 NSaved=   4.
 NSaved= 4 IEnMin= 4 EnMin= -4257.92427515895     IErMin= 2 ErrMin= 1.86D-02
 ErrMax= 2.69D-02  0.00D+00 EMaxC= 1.00D-01 BMatC= 2.73D+00 BMatP= 1.30D+00
 IDIUse=2 WtCom= 0.00D+00 WtEn= 1.00D+00
 EnCoef did   100 forward-backward iterations
 Coeff-En:   0.407D+00 0.158D-02 0.857D-03 0.590D+00
 Coeff:      0.407D+00 0.158D-02 0.857D-03 0.590D+00
 Gap=     0.273 Goal=   None    Shift=    0.000
 Gap=    -0.080 Goal=   None    Shift=    0.000
 RMSDP=2.15D-03 MaxDP=1.22D-01 DE=-1.97D+01 OVMax= 9.01D-01

 Cycle   5  Pass 0  IDiag  1:
 RMSU=  1.31D-03    CP:  9.61D-01  1.52D-01  2.03D-01  4.51D-01
 E= -4258.50495093984     Delta-E=       -0.580675780893 Rises=F Damp=F
 DIIS: error= 1.46D-02 at cycle   5 NSaved=   5.
 NSaved= 5 IEnMin= 5 EnMin= -4258.50495093984     IErMin= 5 ErrMin= 1.46D-02
 ErrMax= 1.46D-02  0.00D+00 EMaxC= 1.00D-01 BMatC= 6.37D-01 BMatP= 1.30D+00
 IDIUse=3 WtCom= 8.54D-01 WtEn= 1.46D-01
 Coeff-Com:  0.128D+00 0.154D+00-0.112D-01 0.298D+00 0.432D+00
 Coeff-En:   0.000D+00 0.000D+00 0.000D+00 0.254D+00 0.746D+00
 Coeff:      0.109D+00 0.132D+00-0.959D-02 0.291D+00 0.478D+00
 Gap=    -0.051 Goal=   None    Shift=    0.000
 Gap=     0.053 Goal=   None    Shift=    0.000
 RMSDP=1.25D-03 MaxDP=1.95D-01 DE=-5.81D-01 OVMax= 8.49D-01

 Cycle   6  Pass 0  IDiag  1:
 RMSU=  1.05D-03    CP:  9.61D-01  1.75D-01  1.63D-01  5.53D-01  5.65D-01
 E= -4258.75528551668     Delta-E=       -0.250334576836 Rises=F Damp=F
 DIIS: error= 9.41D-03 at cycle   6 NSaved=   6.
 NSaved= 6 IEnMin= 6 EnMin= -4258.75528551668     IErMin= 6 ErrMin= 9.41D-03
 ErrMax= 9.41D-03  0.00D+00 EMaxC= 1.00D-01 BMatC= 2.66D-01 BMatP= 6.37D-01
 IDIUse=3 WtCom= 9.06D-01 WtEn= 9.41D-02
 Coeff-Com: -0.615D-01 0.154D+00-0.529D-02 0.737D-01 0.391D+00 0.448D+00
 Coeff-En:   0.000D+00 0.000D+00 0.000D+00 0.000D+00 0.195D+00 0.805D+00
 Coeff:     -0.558D-01 0.139D+00-0.479D-02 0.668D-01 0.373D+00 0.482D+00
 Gap=     0.075 Goal=   None    Shift=    0.000
 Gap=     0.046 Goal=   None    Shift=    0.000
 RMSDP=5.80D-04 MaxDP=8.42D-02 DE=-2.50D-01 OVMax= 2.41D-01

 Cycle   7  Pass 0  IDiag  1:
 RMSU=  4.37D-04    CP:  9.61D-01  1.83D-01  1.83D-01  5.76D-01  6.23D-01
                    CP:  6.64D-01
 E= -4258.82964103734     Delta-E=       -0.074355520666 Rises=F Damp=F
 DIIS: error= 2.93D-03 at cycle   7 NSaved=   7.
 NSaved= 7 IEnMin= 7 EnMin= -4258.82964103734     IErMin= 7 ErrMin= 2.93D-03
 ErrMax= 2.93D-03  0.00D+00 EMaxC= 1.00D-01 BMatC= 2.94D-02 BMatP= 2.66D-01
 IDIUse=3 WtCom= 9.71D-01 WtEn= 2.93D-02
 Coeff-Com: -0.565D-01 0.100D+00-0.218D-02 0.126D-01 0.153D+00 0.269D+00
 Coeff-Com:  0.524D+00
 Coeff-En:   0.000D+00 0.000D+00 0.000D+00 0.000D+00 0.000D+00 0.499D-01
 Coeff-En:   0.950D+00
 Coeff:     -0.549D-01 0.971D-01-0.212D-02 0.122D-01 0.149D+00 0.262D+00
 Coeff:      0.537D+00
 Gap=     0.087 Goal=   None    Shift=    0.000
 Gap=     0.069 Goal=   None    Shift=    0.000
 RMSDP=1.90D-04 MaxDP=1.64D-02 DE=-7.44D-02 OVMax= 4.67D-02

 Cycle   8  Pass 0  IDiag  1:
 RMSU=  1.59D-04    CP:  9.60D-01  1.84D-01  1.82D-01  5.77D-01  6.26D-01
                    CP:  7.23D-01  8.11D-01
 E= -4258.83679559947     Delta-E=       -0.007154562123 Rises=F Damp=F
 DIIS: error= 1.65D-03 at cycle   8 NSaved=   8.
 NSaved= 8 IEnMin= 8 EnMin= -4258.83679559947     IErMin= 8 ErrMin= 1.65D-03
 ErrMax= 1.65D-03  0.00D+00 EMaxC= 1.00D-01 BMatC= 8.78D-03 BMatP= 2.94D-02
 IDIUse=3 WtCom= 9.84D-01 WtEn= 1.65D-02
 Coeff-Com: -0.258D-01 0.432D-01-0.299D-02-0.317D-03 0.225D-01 0.694D-01
 Coeff-Com:  0.363D+00 0.531D+00
 Coeff-En:   0.000D+00 0.000D+00 0.000D+00 0.000D+00 0.000D+00 0.000D+00
 Coeff-En:   0.154D+00 0.846D+00
 Coeff:     -0.254D-01 0.424D-01-0.294D-02-0.311D-03 0.221D-01 0.683D-01
 Coeff:      0.359D+00 0.536D+00
 Gap=     0.103 Goal=   None    Shift=    0.000
 Gap=     0.072 Goal=   None    Shift=    0.000
 RMSDP=9.06D-05 MaxDP=8.02D-03 DE=-7.15D-03 OVMax= 2.64D-02

 Cycle   9  Pass 0  IDiag  1:
 RMSU=  7.30D-05    CP:  9.60D-01  1.85D-01  1.81D-01  5.81D-01  6.27D-01
                    CP:  7.08D-01  8.98D-01  7.94D-01
 E= -4258.83947883856     Delta-E=       -0.002683239098 Rises=F Damp=F
 DIIS: error= 7.44D-04 at cycle   9 NSaved=   9.
 NSaved= 9 IEnMin= 9 EnMin= -4258.83947883856     IErMin= 9 ErrMin= 7.44D-04
 ErrMax= 7.44D-04  0.00D+00 EMaxC= 1.00D-01 BMatC= 2.02D-03 BMatP= 8.78D-03
 IDIUse=3 WtCom= 9.93D-01 WtEn= 7.44D-03
 Coeff-Com: -0.104D-01 0.194D-01-0.289D-02 0.173D-02-0.164D-02 0.149D-01
 Coeff-Com:  0.602D-01 0.234D+00 0.685D+00
 Coeff-En:   0.000D+00 0.000D+00 0.000D+00 0.000D+00 0.000D+00 0.000D+00
 Coeff-En:   0.000D+00 0.000D+00 0.100D+01
 Coeff:     -0.104D-01 0.192D-01-0.287D-02 0.171D-02-0.163D-02 0.148D-01
 Coeff:      0.597D-01 0.232D+00 0.688D+00
 Gap=     0.113 Goal=   None    Shift=    0.000
 Gap=     0.069 Goal=   None    Shift=    0.000
 RMSDP=4.31D-05 MaxDP=5.66D-03 DE=-2.68D-03 OVMax= 1.03D-02

 Cycle  10  Pass 0  IDiag  1:
 RMSU=  3.88D-05    CP:  9.60D-01  1.85D-01  1.81D-01  5.82D-01  6.28D-01
                    CP:  7.11D-01  8.99D-01  8.93D-01  1.11D+00
 E= -4258.84006971448     Delta-E=       -0.000590875914 Rises=F Damp=F
 DIIS: error= 6.18D-04 at cycle  10 NSaved=  10.
 NSaved=10 IEnMin=10 EnMin= -4258.84006971448     IErMin=10 ErrMin= 6.18D-04
 ErrMax= 6.18D-04  0.00D+00 EMaxC= 1.00D-01 BMatC= 1.11D-03 BMatP= 2.02D-03
 IDIUse=3 WtCom= 9.94D-01 WtEn= 6.18D-03
 Coeff-Com: -0.361D-02 0.893D-02-0.147D-02 0.167D-02-0.427D-02 0.283D-02
 Coeff-Com: -0.153D+00-0.142D+00 0.363D+00 0.928D+00
 Coeff-En:   0.000D+00 0.000D+00 0.000D+00 0.000D+00 0.000D+00 0.000D+00
 Coeff-En:   0.000D+00 0.000D+00 0.000D+00 0.100D+01
 Coeff:     -0.359D-02 0.888D-02-0.146D-02 0.166D-02-0.424D-02 0.282D-02
 Coeff:     -0.152D+00-0.141D+00 0.361D+00 0.929D+00
 Gap=     0.120 Goal=   None    Shift=    0.000
 Gap=     0.067 Goal=   None    Shift=    0.000
 RMSDP=4.31D-05 MaxDP=6.15D-03 DE=-5.91D-04 OVMax= 1.23D-02

 Cycle  11  Pass 0  IDiag  1:
 RMSU=  2.48D-05    CP:  9.60D-01  1.86D-01  1.80D-01  5.85D-01  6.26D-01
                    CP:  7.17D-01  8.94D-01  9.63D-01  1.52D+00  1.27D+00
 E= -4258.84055298945     Delta-E=       -0.000483274971 Rises=F Damp=F
 DIIS: error= 3.86D-04 at cycle  11 NSaved=  11.
 NSaved=11 IEnMin=11 EnMin= -4258.84055298945     IErMin=11 ErrMin= 3.86D-04
 ErrMax= 3.86D-04  0.00D+00 EMaxC= 1.00D-01 BMatC= 3.31D-04 BMatP= 1.11D-03
 IDIUse=3 WtCom= 9.96D-01 WtEn= 3.86D-03
 Coeff-Com: -0.171D-02 0.460D-02-0.509D-03 0.125D-02-0.141D-02 0.415D-02
 Coeff-Com: -0.122D+00-0.161D+00 0.260D-01 0.640D+00 0.611D+00
 Coeff-En:   0.000D+00 0.000D+00 0.000D+00 0.000D+00 0.000D+00 0.000D+00
 Coeff-En:   0.000D+00 0.000D+00 0.000D+00 0.000D+00 0.100D+01
 Coeff:     -0.170D-02 0.459D-02-0.507D-03 0.124D-02-0.140D-02 0.413D-02
 Coeff:     -0.121D+00-0.161D+00 0.259D-01 0.637D+00 0.612D+00
 Gap=     0.123 Goal=   None    Shift=    0.000
 Gap=     0.065 Goal=   None    Shift=    0.000
 RMSDP=2.40D-05 MaxDP=2.90D-03 DE=-4.83D-04 OVMax= 5.89D-03

 Cycle  12  Pass 0  IDiag  1:
 RMSU=  1.52D-05    CP:  9.60D-01  1.86D-01  1.79D-01  5.85D-01  6.26D-01
                    CP:  7.22D-01  8.86D-01  9.97D-01  1.67D+00  1.56D+00
                    CP:  8.28D-01
 E= -4258.84067639622     Delta-E=       -0.000123406769 Rises=F Damp=F
 DIIS: error= 1.84D-04 at cycle  12 NSaved=  12.
 NSaved=12 IEnMin=12 EnMin= -4258.84067639622     IErMin=12 ErrMin= 1.84D-04
 ErrMax= 1.84D-04  0.00D+00 EMaxC= 1.00D-01 BMatC= 8.56D-05 BMatP= 3.31D-04
 IDIUse=3 WtCom= 9.98D-01 WtEn= 1.84D-03
 Coeff-Com: -0.844D-03 0.180D-02-0.291D-03 0.750D-03 0.385D-03 0.325D-02
 Coeff-Com: -0.338D-01-0.592D-01-0.862D-01 0.151D+00 0.414D+00 0.609D+00
 Coeff-En:   0.000D+00 0.000D+00 0.000D+00 0.000D+00 0.000D+00 0.000D+00
 Coeff-En:   0.000D+00 0.000D+00 0.000D+00 0.000D+00 0.000D+00 0.100D+01
 Coeff:     -0.843D-03 0.180D-02-0.291D-03 0.749D-03 0.384D-03 0.324D-02
 Coeff:     -0.337D-01-0.591D-01-0.861D-01 0.151D+00 0.413D+00 0.610D+00
 Gap=     0.124 Goal=   None    Shift=    0.000
 Gap=     0.064 Goal=   None    Shift=    0.000
 RMSDP=1.13D-05 MaxDP=8.22D-04 DE=-1.23D-04 OVMax= 2.54D-03

 Cycle  13  Pass 0  IDiag  1:
 RMSU=  7.96D-06    CP:  9.60D-01  1.87D-01  1.79D-01  5.86D-01  6.26D-01
                    CP:  7.22D-01  8.86D-01  1.00D+00  1.71D+00  1.65D+00
                    CP:  1.06D+00  8.51D-01
 E= -4258.84070602615     Delta-E=       -0.000029629929 Rises=F Damp=F
 DIIS: error= 9.84D-05 at cycle  13 NSaved=  13.
 NSaved=13 IEnMin=13 EnMin= -4258.84070602615     IErMin=13 ErrMin= 9.84D-05
 ErrMax= 9.84D-05  0.00D+00 EMaxC= 1.00D-01 BMatC= 2.43D-05 BMatP= 8.56D-05
 IDIUse=1 WtCom= 1.00D+00 WtEn= 0.00D+00
 Coeff-Com: -0.514D-03 0.704D-03-0.848D-04 0.144D-03 0.402D-04 0.104D-02
 Coeff-Com:  0.104D-01 0.447D-02-0.700D-01-0.767D-01 0.124D+00 0.425D+00
 Coeff-Com:  0.581D+00
 Coeff:     -0.514D-03 0.704D-03-0.848D-04 0.144D-03 0.402D-04 0.104D-02
 Coeff:      0.104D-01 0.447D-02-0.700D-01-0.767D-01 0.124D+00 0.425D+00
 Coeff:      0.581D+00
 Gap=     0.124 Goal=   None    Shift=    0.000
 Gap=     0.064 Goal=   None    Shift=    0.000
 RMSDP=6.03D-06 MaxDP=4.11D-04 DE=-2.96D-05 OVMax= 1.78D-03

 Initial convergence to 1.0D-05 achieved.  Increase integral accuracy.
 Cycle  14  Pass 1  IDiag  1:
 E= -4258.84084029788     Delta-E=       -0.000134271730 Rises=F Damp=F
 DIIS: error= 2.60D-04 at cycle   1 NSaved=   1.
 NSaved= 1 IEnMin= 1 EnMin= -4258.84084029788     IErMin= 1 ErrMin= 2.60D-04
 ErrMax= 2.60D-04  0.00D+00 EMaxC= 1.00D-01 BMatC= 6.31D-05 BMatP= 6.31D-05
 IDIUse=3 WtCom= 9.97D-01 WtEn= 2.60D-03
 Coeff-Com:  0.100D+01
 Coeff-En:   0.100D+01
 Coeff:      0.100D+01
 Gap=     0.125 Goal=   None    Shift=    0.000
 Gap=     0.063 Goal=   None    Shift=    0.000
 RMSDP=6.03D-06 MaxDP=4.11D-04 DE=-1.34D-04 OVMax= 1.53D-03

 Cycle  15  Pass 1  IDiag  1:
 RMSU=  1.06D-04    CP:  1.00D+00
 E= -4258.84085007720     Delta-E=       -0.000009779324 Rises=F Damp=F
 DIIS: error= 9.49D-05 at cycle   2 NSaved=   2.
 NSaved= 2 IEnMin= 2 EnMin= -4258.84085007720     IErMin= 2 ErrMin= 9.49D-05
 ErrMax= 9.49D-05  0.00D+00 EMaxC= 1.00D-01 BMatC= 1.70D-05 BMatP= 6.31D-05
 IDIUse=1 WtCom= 1.00D+00 WtEn= 0.00D+00
 Coeff-Com:  0.251D+00 0.749D+00
 Coeff:      0.251D+00 0.749D+00
 Gap=     0.124 Goal=   None    Shift=    0.000
 Gap=     0.063 Goal=   None    Shift=    0.000
 RMSDP=8.45D-06 MaxDP=5.84D-04 DE=-9.78D-06 OVMax= 2.63D-03

 Cycle  16  Pass 1  IDiag  1:
 RMSU=  8.42D-06    CP:  1.00D+00  1.01D+00
 E= -4258.84084349537     Delta-E=        0.000006581835 Rises=F Damp=F
 DIIS: error= 1.49D-04 at cycle   3 NSaved=   3.
 NSaved= 3 IEnMin= 2 EnMin= -4258.84085007720     IErMin= 2 ErrMin= 9.49D-05
 ErrMax= 1.49D-04  0.00D+00 EMaxC= 1.00D-01 BMatC= 4.05D-05 BMatP= 1.70D-05
 IDIUse=3 WtCom= 4.50D-01 WtEn= 5.50D-01
 Coeff-Com:  0.136D-02 0.608D+00 0.390D+00
 Coeff-En:   0.000D+00 0.646D+00 0.354D+00
 Coeff:      0.611D-03 0.629D+00 0.370D+00
 Gap=     0.124 Goal=   None    Shift=    0.000
 Gap=     0.063 Goal=   None    Shift=    0.000
 RMSDP=4.89D-06 MaxDP=3.50D-04 DE= 6.58D-06 OVMax= 1.65D-03

 Cycle  17  Pass 1  IDiag  1:
 RMSU=  1.54D-06    CP:  1.00D+00  1.01D+00  4.53D-01
 E= -4258.84085545377     Delta-E=       -0.000011958400 Rises=F Damp=F
 DIIS: error= 2.44D-05 at cycle   4 NSaved=   4.
 NSaved= 4 IEnMin= 4 EnMin= -4258.84085545377     IErMin= 4 ErrMin= 2.44D-05
 ErrMax= 2.44D-05  0.00D+00 EMaxC= 1.00D-01 BMatC= 9.46D-07 BMatP= 1.70D-05
 IDIUse=1 WtCom= 1.00D+00 WtEn= 0.00D+00
 Coeff-Com: -0.697D-02 0.365D+00 0.214D+00 0.429D+00
 Coeff:     -0.697D-02 0.365D+00 0.214D+00 0.429D+00
 Gap=     0.124 Goal=   None    Shift=    0.000
 Gap=     0.063 Goal=   None    Shift=    0.000
 RMSDP=8.72D-07 MaxDP=6.48D-05 DE=-1.20D-05 OVMax= 1.46D-04

 Cycle  18  Pass 1  IDiag  1:
 RMSU=  7.85D-07    CP:  1.00D+00  1.01D+00  4.24D-01  8.12D-01
 E= -4258.84085576632     Delta-E=       -0.000000312553 Rises=F Damp=F
 DIIS: error= 7.25D-06 at cycle   5 NSaved=   5.
 NSaved= 5 IEnMin= 5 EnMin= -4258.84085576632     IErMin= 5 ErrMin= 7.25D-06
 ErrMax= 7.25D-06  0.00D+00 EMaxC= 1.00D-01 BMatC= 1.18D-07 BMatP= 9.46D-07
 IDIUse=1 WtCom= 1.00D+00 WtEn= 0.00D+00
 Coeff-Com: -0.198D-02-0.107D+00-0.728D-01 0.991D-01 0.108D+01
 Coeff:     -0.198D-02-0.107D+00-0.728D-01 0.991D-01 0.108D+01
 Gap=     0.124 Goal=   None    Shift=    0.000
 Gap=     0.063 Goal=   None    Shift=    0.000
 RMSDP=8.42D-07 MaxDP=7.85D-05 DE=-3.13D-07 OVMax= 2.15D-04

 Cycle  19  Pass 1  IDiag  1:
 RMSU=  5.42D-07    CP:  1.00D+00  1.01D+00  4.30D-01  1.15D+00  1.48D+00
 E= -4258.84085592367     Delta-E=       -0.000000157346 Rises=F Damp=F
 DIIS: error= 8.16D-06 at cycle   6 NSaved=   6.
 NSaved= 6 IEnMin= 6 EnMin= -4258.84085592367     IErMin= 5 ErrMin= 7.25D-06
 ErrMax= 8.16D-06  0.00D+00 EMaxC= 1.00D-01 BMatC= 1.04D-07 BMatP= 1.18D-07
 IDIUse=1 WtCom= 1.00D+00 WtEn= 0.00D+00
 Coeff-Com:  0.263D-02-0.337D+00-0.206D+00-0.201D+00 0.975D+00 0.767D+00
 Coeff:      0.263D-02-0.337D+00-0.206D+00-0.201D+00 0.975D+00 0.767D+00
 Gap=     0.124 Goal=   None    Shift=    0.000
 Gap=     0.063 Goal=   None    Shift=    0.000
 RMSDP=8.08D-07 MaxDP=7.06D-05 DE=-1.57D-07 OVMax= 1.88D-04

 Cycle  20  Pass 1  IDiag  1:
 RMSU=  2.65D-07    CP:  1.00D+00  1.01D+00  4.43D-01  1.48D+00  2.19D+00
                    CP:  9.49D-01
 E= -4258.84085602112     Delta-E=       -0.000000097451 Rises=F Damp=F
 DIIS: error= 3.02D-06 at cycle   7 NSaved=   7.
 NSaved= 7 IEnMin= 7 EnMin= -4258.84085602112     IErMin= 7 ErrMin= 3.02D-06
 ErrMax= 3.02D-06  0.00D+00 EMaxC= 1.00D-01 BMatC= 1.84D-08 BMatP= 1.04D-07
 IDIUse=1 WtCom= 1.00D+00 WtEn= 0.00D+00
 Coeff-Com:  0.202D-02-0.198D+00-0.120D+00-0.141D+00 0.452D+00 0.473D+00
 Coeff-Com:  0.533D+00
 Coeff:      0.202D-02-0.198D+00-0.120D+00-0.141D+00 0.452D+00 0.473D+00
 Coeff:      0.533D+00
 Gap=     0.124 Goal=   None    Shift=    0.000
 Gap=     0.063 Goal=   None    Shift=    0.000
 RMSDP=2.11D-07 MaxDP=1.95D-05 DE=-9.75D-08 OVMax= 4.62D-05

 Cycle  21  Pass 1  IDiag  1:
 RMSU=  1.25D-07    CP:  1.00D+00  1.01D+00  4.46D-01  1.55D+00  2.32D+00
                    CP:  1.05D+00  8.78D-01
 E= -4258.84085603025     Delta-E=       -0.000000009131 Rises=F Damp=F
 DIIS: error= 1.33D-06 at cycle   8 NSaved=   8.
 NSaved= 8 IEnMin= 8 EnMin= -4258.84085603025     IErMin= 8 ErrMin= 1.33D-06
 ErrMax= 1.33D-06  0.00D+00 EMaxC= 1.00D-01 BMatC= 2.85D-09 BMatP= 1.84D-08
 IDIUse=1 WtCom= 1.00D+00 WtEn= 0.00D+00
 Coeff-Com:  0.539D-03-0.388D-01-0.234D-01-0.333D-01 0.525D-01 0.965D-01
 Coeff-Com:  0.274D+00 0.672D+00
 Coeff:      0.539D-03-0.388D-01-0.234D-01-0.333D-01 0.525D-01 0.965D-01
 Coeff:      0.274D+00 0.672D+00
 Gap=     0.124 Goal=   None    Shift=    0.000
 Gap=     0.063 Goal=   None    Shift=    0.000
 RMSDP=9.22D-08 MaxDP=9.17D-06 DE=-9.13D-09 OVMax= 2.15D-05

 Cycle  22  Pass 1  IDiag  1:
 RMSU=  7.19D-08    CP:  1.00D+00  1.01D+00  4.46D-01  1.56D+00  2.36D+00
                    CP:  1.09D+00  1.03D+00  9.59D-01
 E= -4258.84085603190     Delta-E=       -0.000000001655 Rises=F Damp=F
 DIIS: error= 7.63D-07 at cycle   9 NSaved=   9.
 NSaved= 9 IEnMin= 9 EnMin= -4258.84085603190     IErMin= 9 ErrMin= 7.63D-07
 ErrMax= 7.63D-07  0.00D+00 EMaxC= 1.00D-01 BMatC= 1.59D-09 BMatP= 2.85D-09
 IDIUse=1 WtCom= 1.00D+00 WtEn= 0.00D+00
 Coeff-Com: -0.450D-03 0.540D-01 0.328D-01 0.328D-01-0.152D+00-0.123D+00
 Coeff-Com: -0.143D-01 0.511D+00 0.659D+00
 Coeff:     -0.450D-03 0.540D-01 0.328D-01 0.328D-01-0.152D+00-0.123D+00
 Coeff:     -0.143D-01 0.511D+00 0.659D+00
 Gap=     0.124 Goal=   None    Shift=    0.000
 Gap=     0.063 Goal=   None    Shift=    0.000
 RMSDP=6.86D-08 MaxDP=7.31D-06 DE=-1.66D-09 OVMax= 1.67D-05

 Cycle  23  Pass 1  IDiag  1:
 RMSU=  4.82D-08    CP:  1.00D+00  1.01D+00  4.46D-01  1.58D+00  2.38D+00
                    CP:  1.11D+00  1.12D+00  1.23D+00  9.38D-01
 E= -4258.84085603283     Delta-E=       -0.000000000931 Rises=F Damp=F
 DIIS: error= 4.27D-07 at cycle  10 NSaved=  10.
 NSaved=10 IEnMin=10 EnMin= -4258.84085603283     IErMin=10 ErrMin= 4.27D-07
 ErrMax= 4.27D-07  0.00D+00 EMaxC= 1.00D-01 BMatC= 5.97D-10 BMatP= 1.59D-09
 IDIUse=1 WtCom= 1.00D+00 WtEn= 0.00D+00
 Coeff-Com: -0.512D-03 0.535D-01 0.324D-01 0.357D-01-0.128D+00-0.124D+00
 Coeff-Com: -0.115D+00 0.128D+00 0.493D+00 0.626D+00
 Coeff:     -0.512D-03 0.535D-01 0.324D-01 0.357D-01-0.128D+00-0.124D+00
 Coeff:     -0.115D+00 0.128D+00 0.493D+00 0.626D+00
 Gap=     0.124 Goal=   None    Shift=    0.000
 Gap=     0.063 Goal=   None    Shift=    0.000
 RMSDP=4.28D-08 MaxDP=5.97D-06 DE=-9.31D-10 OVMax= 1.56D-05

 Cycle  24  Pass 1  IDiag  1:
 RMSU=  2.56D-08    CP:  1.00D+00  1.01D+00  4.46D-01  1.58D+00  2.39D+00
                    CP:  1.13D+00  1.18D+00  1.36D+00  1.25D+00  9.70D-01
 E= -4258.84085603318     Delta-E=       -0.000000000347 Rises=F Damp=F
 DIIS: error= 2.86D-07 at cycle  11 NSaved=  11.
 NSaved=11 IEnMin=11 EnMin= -4258.84085603318     IErMin=11 ErrMin= 2.86D-07
 ErrMax= 2.86D-07  0.00D+00 EMaxC= 1.00D-01 BMatC= 1.25D-10 BMatP= 5.97D-10
 IDIUse=1 WtCom= 1.00D+00 WtEn= 0.00D+00
 Coeff-Com: -0.207D-03 0.196D-01 0.119D-01 0.135D-01-0.423D-01-0.445D-01
 Coeff-Com: -0.637D-01-0.427D-01 0.133D+00 0.370D+00 0.645D+00
 Coeff:     -0.207D-03 0.196D-01 0.119D-01 0.135D-01-0.423D-01-0.445D-01
 Coeff:     -0.637D-01-0.427D-01 0.133D+00 0.370D+00 0.645D+00
 Gap=     0.124 Goal=   None    Shift=    0.000
 Gap=     0.063 Goal=   None    Shift=    0.000
 RMSDP=2.00D-08 MaxDP=1.57D-06 DE=-3.47D-10 OVMax= 7.93D-06

 Cycle  25  Pass 1  IDiag  1:
 RMSU=  1.24D-08    CP:  1.00D+00  1.01D+00  4.46D-01  1.58D+00  2.39D+00
                    CP:  1.13D+00  1.19D+00  1.41D+00  1.35D+00  1.19D+00
                    CP:  1.06D+00
 E= -4258.84085603338     Delta-E=       -0.000000000202 Rises=F Damp=F
 DIIS: error= 1.86D-07 at cycle  12 NSaved=  12.
 NSaved=12 IEnMin=12 EnMin= -4258.84085603338     IErMin=12 ErrMin= 1.86D-07
 ErrMax= 1.86D-07  0.00D+00 EMaxC= 1.00D-01 BMatC= 4.20D-11 BMatP= 1.25D-10
 IDIUse=1 WtCom= 1.00D+00 WtEn= 0.00D+00
 Coeff-Com:  0.871D-04-0.100D-01-0.611D-02-0.629D-02 0.265D-01 0.234D-01
 Coeff-Com:  0.107D-01-0.731D-01-0.124D+00-0.264D-01 0.335D+00 0.850D+00
 Coeff:      0.871D-04-0.100D-01-0.611D-02-0.629D-02 0.265D-01 0.234D-01
 Coeff:      0.107D-01-0.731D-01-0.124D+00-0.264D-01 0.335D+00 0.850D+00
 Gap=     0.124 Goal=   None    Shift=    0.000
 Gap=     0.063 Goal=   None    Shift=    0.000
 RMSDP=1.76D-08 MaxDP=1.47D-06 DE=-2.02D-10 OVMax= 8.94D-06

 Cycle  26  Pass 1  IDiag  1:
 RMSU=  9.56D-09    CP:  1.00D+00  1.01D+00  4.46D-01  1.58D+00  2.39D+00
                    CP:  1.13D+00  1.21D+00  1.44D+00  1.43D+00  1.35D+00
                    CP:  1.41D+00  1.34D+00
 E= -4258.84085603342     Delta-E=       -0.000000000040 Rises=F Damp=F
 DIIS: error= 1.32D-07 at cycle  13 NSaved=  13.
 NSaved=13 IEnMin=13 EnMin= -4258.84085603342     IErMin=13 ErrMin= 1.32D-07
 ErrMax= 1.32D-07  0.00D+00 EMaxC= 1.00D-01 BMatC= 2.06D-11 BMatP= 4.20D-11
 IDIUse=1 WtCom= 1.00D+00 WtEn= 0.00D+00
 Coeff-Com:  0.163D-03-0.165D-01-0.100D-01-0.108D-01 0.389D-01 0.373D-01
 Coeff-Com:  0.392D-01-0.251D-01-0.149D+00-0.191D+00-0.128D+00 0.537D+00
 Coeff-Com:  0.878D+00
 Coeff:      0.163D-03-0.165D-01-0.100D-01-0.108D-01 0.389D-01 0.373D-01
 Coeff:      0.392D-01-0.251D-01-0.149D+00-0.191D+00-0.128D+00 0.537D+00
 Coeff:      0.878D+00
 Gap=     0.124 Goal=   None    Shift=    0.000
 Gap=     0.063 Goal=   None    Shift=    0.000
 RMSDP=1.56D-08 MaxDP=1.38D-06 DE=-4.00D-11 OVMax= 7.29D-06

 Cycle  27  Pass 1  IDiag  1:
 RMSU=  5.38D-09    CP:  1.00D+00  1.01D+00  4.46D-01  1.58D+00  2.39D+00
                    CP:  1.14D+00  1.21D+00  1.46D+00  1.49D+00  1.47D+00
                    CP:  1.65D+00  2.09D+00  1.38D+00
 E= -4258.84085603344     Delta-E=       -0.000000000015 Rises=F Damp=F
 DIIS: error= 7.48D-08 at cycle  14 NSaved=  14.
 NSaved=14 IEnMin=14 EnMin= -4258.84085603344     IErMin=14 ErrMin= 7.48D-08
 ErrMax= 7.48D-08  0.00D+00 EMaxC= 1.00D-01 BMatC= 7.07D-12 BMatP= 2.06D-11
 IDIUse=1 WtCom= 1.00D+00 WtEn= 0.00D+00
 Coeff-Com:  0.504D-04-0.471D-02-0.284D-02-0.309D-02 0.997D-02 0.101D-01
 Coeff-Com:  0.163D-01 0.163D-01-0.307D-01-0.929D-01-0.210D+00-0.451D-01
 Coeff-Com:  0.500D+00 0.837D+00
 Coeff:      0.504D-04-0.471D-02-0.284D-02-0.309D-02 0.997D-02 0.101D-01
 Coeff:      0.163D-01 0.163D-01-0.307D-01-0.929D-01-0.210D+00-0.451D-01
 Coeff:      0.500D+00 0.837D+00
 Gap=     0.124 Goal=   None    Shift=    0.000
 Gap=     0.063 Goal=   None    Shift=    0.000
 RMSDP=9.87D-09 MaxDP=8.82D-07 DE=-1.46D-11 OVMax= 5.30D-06

 SCF Done:  E(UB3LYP) =  -4258.84085603     A.U. after   27 cycles
            NFock= 27  Conv=0.99D-08     -V/T= 2.0053
 <Sx>= 0.0000 <Sy>= 0.0000 <Sz>= 0.5000 <S**2>= 0.7753 S= 0.5126
 <L.S>=  0.00000000000    
[...]
 064,-0.00000014,0.00000211,0.00000018,-0.00000134,0.,-0.00000012,-0.00
 000017,-0.00000213,0.00000018,-0.00000138,0.00000205,0.00000063,-0.000
 00013,-0.00000640,-0.00000214,-0.00000319,0.00000038,0.00001244,-0.000
 00690,-0.00000035,0.00001245,-0.00000691,0.00000642,-0.00000216,-0.000
 00316,-0.00000014,-0.00000076,-0.00000014,0.00000014,-0.00000076,-0.00
 000015,0.,-0.00000006,-0.00000006,-0.00000023,-0.00000008,-0.00000003,
 0.00000009,0.00000007,-0.00000002,0.00000074,-0.00000025,0.00000003,-0
 .00000012,-0.00000009,0.00000006,-0.00000035,0.00000005,0.00000014,0.0
 0000035,0.00000025,0.00000002,0.,0.00000004,-0.00000009,0.00000023,-0.
 00000008,-0.00000003,-0.00000075,-0.00000025,0.00000003,-0.00000009,0.
 00000007,-0.00000002,0.00000035,0.00000005,0.00000014,0.00000012,-0.00
 000010,0.00000006,-0.00000036,0.00000027,0.00000002,-0.00000004,0.0000
 0007,-0.00000017,0.,0.00000004,-0.00000009,-0.00000023,-0.00000023,0.0
 0000002,0.00000024,-0.00000023,0.00000002,0.00000030,0.00000020,0.0000
 0007,0.00000070,-0.00000025,0.00000186,-0.00000070,-0.00000024,0.00000
 184,0.00097839,-0.00210317,-0.00452608,-0.00096478,-0.00209925,-0.0045
 2818,0.00125780,0.00030840,0.00009584,0.02428002,0.00357168,0.00026140
 ,-0.02426215,0.00359686,0.00016833,-0.00125690,0.00030913,0.00009069,0
 .00017010,0.00010253,0.00016524,0.00019051,-0.00023759,-0.00030918,0.0
 0170128,0.00007564,0.00215542,-0.00171016,0.00007554,0.00214781,-0.000
 18946,-0.00023712,-0.00030974,-0.00017086,0.00010278,0.00016461,-0.000
 43203,0.00011114,0.00013753,-0.00005928,-0.00000670,-0.00002764,-0.000
 77112,-0.00023476,-0.00025613,0.00043160,0.00011097,0.00013935,0.00077
 116,-0.00023480,-0.00025275,0.00005932,-0.00000673,-0.00002740,-0.0000
 1348,0.00005823,-0.00011324,0.00001399,0.00005828,-0.00011315,-0.00000
 042,-0.00085294,-0.00013993,0.00017569,-0.05351536,-0.01081147,-0.0001
 9811,0.05121484,0.00000003,0.00000423,-0.00001979,0.00002590,0.0000387
 8,-0.00000833,0.00014512,-0.00001248,0.00006257,0.00000200,0.00061272,
 -0.00087174,-0.00014548,-0.00001234,0.00006209,-0.00002580,0.00003876,
 -0.00000847,0.00000009,-0.00000063,-0.00000017,0.00000244,0.00000033,-
 0.00000048,-0.00000315,-0.00000082,0.00000253,-0.00000002,0.00000009,-
 0.00000001,0.00000322,-0.00000083,0.00000263,-0.00000253,0.00000033,-0
 .00000051,0.00001441,0.00000086,0.00000079,0.00000720,-0.00001128,-0.0
 0000573,-0.00000718,-0.00001128,-0.00000571,-0.00001444,0.00000090,0.0
 0000072,-0.00000024,-0.00000019,0.00000047,0.00000025,-0.00000019,0.00
 000049,0.00000003,-0.00000037,0.00000012,-0.00000030,0.00000032,0.0000
 0008,0.00000010,-0.00000005,0.00000004,0.00000119,-0.00000056,-0.00000
 018,-0.00000006,0.00000027,-0.00000010,-0.00000027,0.00000013,-0.00000
 020,0.00000006,-0.00000025,0.,-0.00000001,-0.00000005,0.00000017,0.000
 00027,0.00000031,0.00000008,-0.00000114,-0.00000056,-0.00000018,-0.000
 00010,-0.00000004,0.00000004,0.00000025,0.00000014,-0.00000020,0.00000
 005,0.00000029,-0.00000009,-0.00000002,-0.00000028,-0.00000001,-0.0000
 0006,-0.00000006,0.00000031,0.,-0.00000005,0.00000017,0.00000006,0.000
 00016,-0.00000010,-0.00000009,0.00000018,-0.00000009,0.00000063,0.0000
 0033,-0.00000004,-0.00000112,0.00000058,-0.00000267,0.00000108,0.00000
 056,-0.00000261,0.00040389,-0.00456298,0.00350045,-0.00041799,-0.00457
 225,0.00349349,0.00069116,0.00010427,0.00015763,0.01363026,0.00006203,
 0.00332936,-0.01369295,0.00008326,0.00328081,-0.00069474,0.00010733,0.
 00015630,0.00008979,0.00015560,-0.00009862,0.00007733,-0.00029496,0.00
 010478,0.00091819,0.00216200,-0.00262093,-0.00090312,0.00216982,-0.002
 62052,-0.00007850,-0.00029575,0.00010394,-0.00008841,0.00015548,-0.000
 09904,-0.00024546,0.00013305,-0.00005430,-0.00003470,-0.00003022,0.000
 03023,-0.00041064,-0.00026406,0.00010244,0.00024592,0.00013172,-0.0000
 5399,0.00041223,-0.00026732,0.00010245,0.00003475,-0.00003039,0.000030
 29,-0.00000307,-0.00011875,0.00019802,0.00000214,-0.00011897,0.0001979
 0,0.00000195,-0.00006796,-0.00066065,-0.00056209,-0.01063922,-0.039800
 86,0.00062230,0.01535002,0.03201464,0.00005387,-0.00001281,0.00001592,
 0.00003083,0.00003540,-0.00008992,0.00000996,-0.00002480,0.00001768,0.
 00002437,-0.00000193,0.00000716,-0.00001321,-0.00001880,-0.00000267,-0
 .00001150,0.00000749,-0.00002769,0.00019610,0.00030541,0.00006256,0.00
 056030,-0.00004263,0.00003390,0.00035951,-0.00078862,-0.00005000,-0.00
 091563,-0.00073455,-0.00017487,0.00033083,-0.00077189,-0.00024730,0.00
 053644,-0.00005874,-0.00006071,0.00001756,0.00000368,0.00005855,0.0000
 1168,0.00001126,0.00000322,-0.00000782,-0.00000174,0.00001020,0.000003
 16,0.00001477,0.00002086,0.00007709,0.00007255,0.00001854,0.00008346,0
 .00008338,0.00000923,-0.00147876,-0.00457973,-0.00098650,-0.02102977,0
 .01413024,0.00304742,0.00222302,0.00240005,0.00051745,-0.14644367,0.03
 822672,0.00805680,-0.00169050,0.00269901,0.00058118,-0.04802767,0.0131
 2937,0.00276470,0.00426823,-0.00564669,-0.00122174,-0.00009526,0.00004
 662,0.00001128,0.00009224,0.00148575,0.00031594,-0.00141784,-0.0007588
 5,-0.00016794,-0.00127898,-0.00134450,-0.00029380,0.00029795,0.0001008
 6,0.00002304,0.00014108,0.00166365,0.00036094,-0.00005406,-0.00114402,
 -0.00024799,-0.00000095,0.00002514,0.00000550,0.00003227,-0.00009269,-
 0.00001983,-0.00221129,-0.00045324,-0.00010279,-0.00046456,0.00054951,
 0.00011790,0.00095913,0.00025585,0.00005656,0.00005385,-0.00003706,-0.
 00021507,0.00005840,-0.00011667,0.00015436,-0.00001697,0.00001917,0.00
 001025,-0.00003491,0.00000873,0.00000514,-0.00000380,-0.00000917,-0.00
 000661,-0.00000671,0.00000289,0.00000052,-0.00000659,-0.00000218,-0.00
 000367,0.00003264,-0.00001071,0.00000026,-0.00000374,0.00000091,0.0000
 0261,0.00000053,0.00001533,0.00001020,0.00001014,-0.00000178,0.0000000
 2,-0.00001055,0.00000223,0.00000201,-0.00000456,0.00000955,-0.00000017
 ,0.00000503,0.00001462,0.00001181,0.00000219,-0.00000251,0.00000016,0.
 00000297,-0.00000580,-0.00000583,-0.00000647,0.00000062,0.00000003,0.0
 0001026,-0.00002229,-0.00001112,-0.00000728,-0.00000211,-0.00000235,0.
 00000668,-0.00001088,-0.00000993,-0.00000628,-0.00000612,-0.00000422,-
 0.00000130,0.00000456,0.00000103,0.00004441,-0.00000966,0.00000581,-0.
 00000116,-0.00000198,0.00000011,-0.00000640,-0.00000029,-0.00000065,0.
 21404678,0.00010369,-0.00000806,-0.00001790,-0.00008214,-0.00002125,0.
 00006802,-0.00000212,0.00000950,-0.00001829,-0.00002011,-0.00000486,-0
 .00000064,0.00000066,0.00002471,-0.00000152,-0.00003992,-0.00000187,0.
 00001855,-0.00037609,0.00030556,-0.00001418,0.00026398,0.00029130,-0.0
 0006198,-0.00020766,-0.00240779,0.00004159,-0.00142050,-0.00536889,-0.
 00124786,-0.00039634,-0.00253368,-0.00089320,0.00049468,0.00020813,0.0
 0021925,-0.00000139,-0.00000659,-0.00003679,-0.00001248,-0.00000096,-0
 .00000495,-0.00000260,-0.00000273,-0.00000082,0.00000803,0.00000261,-0
 .00001817,-0.00004580,-0.00004013,-0.00002061,-0.00004775,-0.00005292,
 0.00001327,0.00074213,0.00323251,0.00106450,0.03294094,-0.00906850,-0.
 00252045,-0.00341898,-0.00390120,-0.00179053,0.03992360,-0.05358097,-0
 .00667842,0.00088610,0.00031217,0.00015961,-0.01008372,0.00754545,0.00
 063991,-0.00107624,-0.00114713,-0.00132230,0.00010726,0.00016573,0.000
 19142,0.00045616,-0.00106560,-0.00024125,0.00024762,0.00068823,0.00013
 890,0.00189761,-0.00027790,-0.00007543,0.00027144,-0.00012674,-0.00002
 429,-0.00035942,-0.00061279,-0.00009273,-0.00017434,0.00017303,0.00003
 548,-0.00000135,-0.00000511,0.00000111,0.00000573,0.00004062,0.0000076
 3,-0.00037633,0.00008456,0.00001093,0.00021807,-0.00025752,-0.00005912
 ,-0.00025697,-0.00020513,-0.00004810,-0.00005043,0.00039440,-0.0001001
 6,0.00000990,0.00030728,0.00008400,-0.00000855,-0.00000160,-0.00000229
 ,0.00000109,-0.00001316,-0.00000579,0.00000726,0.00000271,0.00000055,0
 .00000122,-0.00000160,0.00000073,0.00000111,0.00000164,0.00000103,-0.0
 0001351,0.00000716,0.00000278,0.00000087,-0.00000121,-0.00000141,-0.00
 000110,-0.00000166,-0.00000017,-0.00000560,0.00000009,-0.00000035,0.00
 000484,-0.00000038,-0.00000065,0.00000073,-0.00001062,-0.00000509,-0.0
 0000200,-0.00000543,-0.00000485,0.00000075,0.00000361,0.00000170,-0.00
 000014,0.00000238,0.00000204,0.00000030,-0.00000038,0.00000028,-0.0000
 0341,0.00000831,0.00000360,0.00000071,0.00000113,0.00000087,-0.0000021
 6,0.00000601,0.00000544,0.00000085,0.00000072,0.00000086,-0.00000120,0
 .00000001,0.00000064,0.00001112,0.00000639,-0.00000300,-0.00000316,0.0
 0000092,-0.00000007,0.00000052,0.00000020,0.00000033,-0.05917272,0.065
 88828,0.00002512,-0.00000623,0.00001162,-0.00001534,-0.00001318,0.0000
 2281,-0.00000137,0.00000579,-0.00000368,-0.00000363,0.00000037,-0.0000
 0144,0.00000272,0.00000769,0.00000139,-0.00001792,0.00000046,-0.000002
 61,-0.00008054,-0.00002421,0.00040978,0.00060326,0.00010106,-0.0001714
 9,-0.00048197,-0.00112317,-0.00063275,-0.00032305,-0.00125828,0.000142
 09,0.00035584,0.00024984,-0.00055144,-0.00043863,0.00007793,-0.0001066
 6,-0.00000127,-0.00000423,-0.00001587,-0.00000315,-0.00000073,-0.00000
 119,-0.00000106,-0.00000047,-0.00000037,0.00000312,0.00000044,-0.00000
 790,0.00000266,-0.00000017,-0.00001168,-0.00002231,-0.00001041,-0.0000
 0695,0.00016194,0.00106473,-0.00149183,0.00709069,-0.00253510,0.002232
 06,-0.00074634,-0.00177553,0.00394368,0.00847459,-0.00671596,-0.023887
 97,0.00019073,0.00016267,-0.00038096,-0.00228098,0.00068303,0.00464140
 ,-0.00023164,-0.00133174,0.00465649,0.00002447,0.00019138,-0.00067608,
 0.00010118,-0.00023924,-0.00000489,0.00004923,0.00013749,0.00008007,0.
 00040864,-0.00008429,0.00007367,0.00006036,-0.00002494,-0.00001613,-0.
 00007752,-0.00008747,-0.00020628,-0.00003818,0.00003233,0.00001341,-0.
 00000029,0.00000120,-0.00001004,0.00000129,0.00000742,0.00000695,-0.00
 008750,0.00000963,0.00003336,0.00004582,-0.00005804,0.00000531,-0.0000
 5298,-0.00004707,0.00000276,0.00011988,-0.00005534,0.00032019,-0.00012
 019,0.00006272,0.00039133,-0.00000180,-0.00000047,-0.00000067,0.000000
 27,-0.00000232,-0.00000087,0.00000154,0.00000057,0.00000039,0.00000019
 ,-0.00000044,0.00000016,0.00000005,0.00000012,0.00000012,-0.00000203,0
 .00000140,-0.00000005,0.00000025,-0.00000050,-0.00000018,-0.00000024,-
 0.00000040,-0.00000042,-0.00000118,-0.00000003,0.00000004,0.00000086,-
 0.00000013,-0.00000005,0.00000034,-0.00000195,-0.00000014,-0.00000055,
 -0.00000060,-0.00000087,0.00000018,0.00000074,0.00000049,-0.00000003,0
 .00000070,0.00000029,0.00000005,-0.00000003,-0.00000001,-0.00000060,0.
 00000149,0.00000068,0.00000010,0.00000021,0.00000006,-0.00000013,0.000
 00095,0.00000114,0.00000022,0.00000023,0.00000007,-0.00000033,0.000000
 09,0.00000010,0.00000181,0.00000075,-0.00000213,-0.00000057,0.00000015
 ,0.00000011,0.00000008,0.00000007,-0.00000004,-0.01249516,0.01177294,0
 .01382590,0.00000075,0.00000091,-0.00000073,-0.00000330,-0.00000178,0.
 00000653,0.00000014,0.00000240,-0.00000112,-0.00000301,-0.00000017,-0.
 00000024,0.00000113,0.00000102,0.00000023,0.00000011,-0.00000036,0.000
 00206,-0.00000931,-0.00000711,-0.00000132,-0.00001618,0.00000871,-0.00
 000429,-0.00000652,0.00003603,0.00001416,0.00018120,-0.00001809,-0.000
 00314,-0.00000666,0.00003883,0.00000051,-0.00001528,0.00000706,0.00000
 697,0.00000006,-0.00000091,-0.00000456,-0.00000126,-0.00000106,-0.0000
 0041,0.00000040,0.00000027,-0.00000084,-0.00000010,-0.00000063,-0.0000
 0123,-0.00000351,-0.00000399,-0.00000182,-0.00000373,-0.00000480,0.000
 00040,0.00077608,-0.00061514,-0.00013360,-0.00394362,-0.00240279,-0.00
 053723,-0.00105961,-0.00051358,-0.00011107,0.00680004,-0.02348852,-0.0
 0508116,-0.00528523,0.00052590,0.00009471,-0.06586923,0.05479686,0.011
 81204,-0.00222047,0.02858678,0.00618628,-0.00002412,0.00143009,0.00030
 819,-0.00023688,-0.00038116,-0.00008255,0.00010522,0.00009154,0.000020
 62,0.00005892,-0.00002046,-0.00000441,0.00006926,-0.00006078,-0.000013
 01,-0.00005319,0.00005631,0.00001195,-0.00004934,-0.00007241,-0.000015
 60,0.00001351,-0.00000515,-0.00000125,0.00003023,-0.00002977,-0.000006
 52,0.00075055,0.00052529,0.00011918,0.00000919,0.00000015,0.00000006,-
 0.00000096,0.00000135,0.00000032,-0.00000154,-0.00000120,0.00000554,-0
 .00000199,0.00000091,-0.00000420,0.00000167,-0.00000159,-0.00000080,0.
 00000326,-0.00000092,-0.00000058,0.00000019,0.00000070,0.00000057,0.00
 000087,-0.00000030,-0.00000010,0.00000090,0.00000031,0.00000039,-0.000
 00296,0.00000117,-0.00000004,0.00000017,0.00000027,0.00000003,0.000000
 02,-0.00000115,-0.00000084,-0.00000100,0.00000019,0.00000003,0.0000009
 4,-0.00000024,-0.00000021,0.00000057,-0.00000120,-0.00000002,-0.000000
 70,-0.00000183,-0.00000150,-0.00000031,-0.00000006,-0.00000014,-0.0000
 0035,0.00000038,0.00000037,0.00000072,-0.00000010,-0.00000005,-0.00000
 107,0.00000244,0.00000120,0.00000083,0.00000028,0.00000027,-0.00000075
 ,0.00000112,0.00000115,0.00000054,0.00000065,0.00000041,0.00000016,-0.
 00000055,-0.00000014,-0.00000383,0.00000082,-0.00000042,-0.00000014,0.
 00000017,0.,0.00000072,0.00000004,0.00000006,0.00067522,-0.00094276,-0
 .00019900,0.06934258,-0.00000182,0.00000036,0.00000042,-0.00000115,-0.
 00000122,0.00000404,-0.00000083,0.00000026,-0.00000090,-0.00000110,0.0
 0000002,-0.00000030,0.00000019,0.00000128,0.00000039,-0.00000055,0.000
 00071,-0.00000021,-0.00000834,-0.00000487,-0.00000134,-0.00001506,0.00
 000439,0.00000050,-0.00001525,0.00001084,0.00001831,0.00006263,-0.0000
 1054,0.00000423,-0.00003272,0.00002523,-0.00005044,-0.00001364,0.00000
 486,0.00001032,-0.00000069,0.00000012,-0.00000183,-0.00000022,-0.00000
 031,-0.00000005,-0.00000015,-0.00000011,-0.00000033,0.00000022,-0.0000
 0094,-0.00000084,-0.00000378,-0.00000198,-0.00000065,-0.00000591,-0.00
 000317,-0.00000042,0.00068701,-0.00005507,-0.00022153,-0.00340142,-0.0
 0028498,-0.00124778,-0.00021251,0.00046676,0.00033249,0.00604229,-0.01
 455104,-0.00358992,0.00111251,0.00133745,-0.00078722,0.05448118,-0.326
 07597,-0.06360039,-0.00095676,-0.00551560,-0.00163789,-0.00001850,-0.0
 0010441,-0.00011866,-0.00021764,-0.00018058,0.00001803,0.00010985,-0.0
 0002733,0.00006266,-0.00004308,0.00008905,0.00001558,-0.00005518,0.000
 00611,0.00000030,0.00004750,-0.00009040,-0.00003573,0.00004718,0.00007
 526,0.00003975,0.00000521,-0.00000229,-0.00002097,-0.00000066,0.000008
 12,-0.00001614,-0.00061486,0.00101222,0.00077738,0.00001960,-0.0000226
 4,-0.00000335,-0.00002515,-0.00000508,0.00000111,0.00000884,-0.0000029
 2,0.00003498,-0.00000154,0.00000207,-0.00000996,0.00000051,-0.00000039
 ,-0.00000031,0.00000112,-0.00000036,-0.00000020,0.00000004,0.00000013,
 0.00000029,0.00000019,-0.00000007,-0.00000004,0.00000019,0.00000019,0.
 00000007,-0.00000126,0.00000014,0.00000030,0.00000005,-0.00000003,0.00
 000005,0.00000002,-0.00000031,-0.00000037,-0.00000024,0.00000001,0.000
 00009,0.00000030,-0.00000014,0.00000007,0.00000011,-0.00000012,-0.0000
 0034,0.00000006,-0.00000049,0.00000003,-0.00000008,-0.00000007,0.00000
 002,-0.00000008,0.00000014,0.00000003,0.00000019,0.00000001,-0.0000000
 6,-0.00000043,0.00000058,0.00000050,0.00000025,0.00000014,-0.00000002,
 -0.00000032,0.00000052,-0.00000006,0.00000014,0.00000020,0.00000005,0.
 00000018,-0.00000009,-0.00000023,-0.00000137,0.00000016,0.,0.00000003,
 -0.00000004,0.00000012,0.00000021,0.00000007,-0.00000006,0.00056285,0.
 00101903,0.00082607,-0.05753838,0.34287712,0.00000147,0.00000210,-0.00
 000454,-0.00000398,-0.00000414,0.00000306,0.00000081,0.00000010,-0.000
 00118,-0.00000054,-0.00000002,0.00000002,0.00000047,0.00000055,-0.0000
 0120,0.00000092,-0.00000136,-0.00000051,-0.00000199,-0.00000195,0.0000
 0228,-0.00000179,0.00000662,-0.00002037,-0.00004601,-0.00001523,0.0000
 9271,0.00001392,0.00000286,-0.00002623,0.00003558,-0.00001394,0.000078
 75,-0.00000508,0.00000446,-0.00001882,0.00000061,0.00000049,0.00000011
 ,-0.00000151,0.00000019,0.00000042,0.00000066,0.00000080,0.00000021,-0
 .00000040,0.00000146,0.00000012,-0.00000535,-0.00000218,-0.00000025,0.
 00000336,0.00000060,0.00000078,0.00014760,-0.00022352,0.00092357,-0.00
 075514,-0.00124192,0.00517323,-0.00004280,0.00033294,-0.00099619,0.001
 31294,-0.00364952,0.00127638,0.00022114,-0.00078981,0.00480536,0.01175
 149,-0.06360320,-0.04585148,-0.00021969,-0.00157959,0.00169422,-0.0000
 0494,-0.00011610,0.00041812,-0.00004687,0.00001773,-0.00026139,0.00002
 478,0.00006250,-0.00030174,-0.00000926,0.00001526,0.00002036,-0.000011
 87,0.00000034,0.00000406,0.00001001,-0.00003560,0.00006724,0.00001035,
 0.00003950,-0.00009913,0.00000094,-0.00002100,0.00009001,-0.00000027,-
 0.00001611,0.00007892,-0.00012779,0.00077973,-0.00240866,0.00000428,-0
 .00000341,-0.00000767,-0.00000547,0.00000112,-0.00001006,-0.00002269,0
 .00000096,-0.00005077,0.00002422,0.00002186,-0.00005572,0.00000059,0.,
 0.00000022,0.00000010,0.00000045,0.00000058,-0.00000055,0.00000027,-0.
 00000061,-0.00000004,-0.00000010,0.00000015,-0.00000015,-0.00000012,0.
 00000019,0.00000042,0.00000027,-0.00000134,-0.00000007,0.00000025,-0.0
 0000041,0.00000019,-0.00000028,0.00000056,0.00000030,0.00000022,-0.000
 00031,-0.00000031,0.00000026,-0.00000043,-0.00000017,-0.00000003,0.000
 00151,0.00000050,0.00000127,-0.00000042,-0.00000010,-0.00000016,-0.000
 00049,0.00000002,-0.00000042,0.00000030,0.00000002,-0.00000014,0.00000
 025,-0.00000004,-0.00000008,-0.00000072,-0.00000001,-0.00000022,0.0000
 0030,-0.00000003,-0.00000092,0.00000074,-0.00000003,-0.00000018,0.0000
 0026,0.00000024,-0.00000036,0.00000046,-0.00000077,0.00000059,-0.00000
 082,0.00000017,0.00000025,-0.00000053,0.,-0.00000017,0.00000031,0.0001
 2768,0.00082539,-0.00262427,-0.01238005,0.06920038,0.03801052\\0.00000
 005,0.,0.,-0.00000005,0.,-0.00000006,-0.00000007,-0.00000007,0.0000000
 3,0.00000005,0.,0.,-0.00000006,0.00000007,-0.00000003,-0.00000005,0.,0
 .00000006,-0.00000013,0.00000001,0.00000004,0.00000028,0.,-0.00000021,
 0.00000021,-0.00000016,-0.00000010,0.00000033,-0.00000010,0.00000011,0
 .00000003,0.00000022,-0.00000008,0.00000034,-0.00000002,0.00000015,0.0
 0000003,0.,-0.00000005,0.,-0.00000003,-0.00000003,0.,0.00000003,0.0000
 0003,0.00000003,0.,0.00000005,-0.00000004,-0.00000002,-0.00000004,-0.0
 0000002,0.00000002,0.00000003,-0.00000023,-0.00000015,-0.00000008,0.00
 000018,0.00000006,0.00000012,-0.00000031,-0.00000015,-0.00000037,-0.00
 000003,-0.00000018,-0.00000003,0.00000006,-0.00000004,0.00000002,-0.00
 000006,0.00000010,-0.00000010,-0.00000003,0.00000014,-0.00000006,0.000
 00006,0.00000002,-0.00000002,0.,0.00000026,0.00000004,0.00000011,0.000
 00006,0.00000006,-0.00000041,-0.00000015,0.00000022,-0.00000013,0.0000
 0002,0.00000007,0.00000009,0.00000009,0.00000013,0.00000002,-0.0000000
 9,0.00000006,0.,-0.00000002,0.00000009,0.00000005,-0.00000002,0.,0.000
 00008,0.00000006,-0.00000006,0.00000005,-0.00000004,0.00000007,0.00000
 003,-0.00000021,0.,-0.00000012,-0.00000008,-0.00000001,-0.00000036,-0.
 00000007,-0.00000014,-0.00000007,0.00000002,0.00000004,-0.00000006,-0.
 00000003,-0.00000005,0.00000004,0.,0.00000006,-0.00000003,0.,0.0000000
 2,-0.00000004,0.,-0.00000002,0.00000004,0.,-0.00000005,0.,-0.00000006,
 0.00000004,0.,-0.00000003,0.00000004,0.,0.00000004,0.00000007,0.,-0.00
 000004,-0.00000007,0.,0.00000003,-0.00000004,0.,0.00000006,-0.00000004
 ,-0.00000005,0.,0.00000007,0.,-0.00000005,0.00000007,0.00000003,-0.000
 00003,0.00000004,-0.00000005,0.,-0.00000007,0.00000003,0.00000003,-0.0
 0000004,0.,0.00000005,-0.00000007,0.,-0.00000006,0.00000006,0.,0.00000
 006,-0.00000007,0.00000004,0.,0.,0.00000005,0.,0.,0.00000004,0.,0.,-0.
 00000009,0.00000046,0.00000017,0.00000008,0.,-0.00000006\\\@
 The archive entry for this job was punched.


 ... SUBJECTS WHICH DISCLOSE THEIR FULL POWER, MEANING AND BEAUTY AS SOON
 AS THEY ARE PRESENTED TO THE MIND HAVE VERY LITTLE OF THOSE QUALITIES
 TO DISCLOSE.
                           -- CHARLES DUTTON (1882)
 Job cpu time:       1 days  2 hours 56 minutes 41.1 seconds.
 Elapsed time:       0 days  1 hours  7 minutes 26.6 seconds.
 File lengths (MBytes):  RWF=   8789 Int=      0 D2E=      0 Chk=     73 Scr=      2
 Normal termination of Gaussian 16 at Tue Aug 19 22:36:20 2025.
