 Entering Gaussian System, Link 0=g16
 Input=molecule.gjf
 Output=molecule.log
 Initial command:
 /share/apps/softwares/gaussian/16/g16/l1.exe "/share/home/kae/gaussian/corrtectedOI/ttmalt_250613_m062x/Gau-6571.inp" -scrdir="/share/home/kae/gaussian/corrtectedOI/ttmalt_250613_m062x/"
 Entering Link 1 = /share/apps/softwares/gaussian/16/g16/l1.exe PID=      6572.
  
 Copyright (c) 1988-2019, Gaussian, Inc.  All Rights Reserved.
  
 This is part of the Gaussian(R) 16 program.  It is based on
 the Gaussian(R) 09 system (copyright 2009, Gaussian, Inc.),
 the Gaussian(R) 03 system (copyright 2003, Gaussian, Inc.),
 the Gaussian(R) 98 system (copyright 1998, Gaussian, Inc.),
 the Gaussian(R) 94 system (copyright 1995, Gaussian, Inc.),
 the Gaussian 92(TM) system (copyright 1992, Gaussian, Inc.),
 the Gaussian 90(TM) system (copyright 1990, Gaussian, Inc.),
 the Gaussian 88(TM) system (copyright 1988, Gaussian, Inc.),
 the Gaussian 86(TM) system (copyright 1986, Carnegie Mellon
 University), and the Gaussian 82(TM) system (copyright 1983,
 Carnegie Mellon University). Gaussian is a federally registered
 trademark of Gaussian, Inc.
  
 This software contains proprietary and confidential information,
 including trade secrets, belonging to Gaussian, Inc.
  
 This software is provided under written license and may be
 used, copied, transmitted, or stored only in accord with that
 written license.
  
 The following legend is applicable only to US Government
 contracts under FAR:
  
                    RESTRICTED RIGHTS LEGEND
  
 Use, reproduction and disclosure by the US Government is
 subject to restrictions as set forth in subparagraphs (a)
 and (c) of the Commercial Computer Software - Restricted
 Rights clause in FAR 52.227-19.
  
 Gaussian, Inc.
 340 Quinnipiac St., Bldg. 40, Wallingford CT 06492
  
  
 ---------------------------------------------------------------
 Warning -- This program may not be used in any manner that
 competes with the business of Gaussian, Inc. or will provide
 assistance to any competitor of Gaussian, Inc.  The licensee
 of this program is prohibited from giving any competitor of
 Gaussian, Inc. access to this program.  By using this program,
 the user acknowledges that Gaussian, Inc. is engaged in the
 business of creating and licensing software in the field of
 computational chemistry and represents and warrants to the
 licensee that it is not a competitor of Gaussian, Inc. and that
 it will not use this program in any manner prohibited above.
 ---------------------------------------------------------------
  

 Cite this work as:
 Gaussian 16, Revision C.01,
 M. J. Frisch, G. W. Trucks, H. B. Schlegel, G. E. Scuseria, 
 M. A. Robb, J. R. Cheeseman, G. Scalmani, V. Barone, 
 G. A. Petersson, H. Nakatsuji, X. Li, M. Caricato, A. V. Marenich, 
 J. Bloino, B. G. Janesko, R. Gomperts, B. Mennucci, H. P. Hratchian, 
 J. V. Ortiz, A. F. Izmaylov, J. L. Sonnenberg, D. Williams-Young, 
 F. Ding, F. Lipparini, F. Egidi, J. Goings, B. Peng, A. Petrone, 
 T. Henderson, D. Ranasinghe, V. G. Zakrzewski, J. Gao, N. Rega, 
 G. Zheng, W. Liang, M. Hada, M. Ehara, K. Toyota, R. Fukuda, 
 J. Hasegawa, M. Ishida, T. Nakajima, Y. Honda, O. Kitao, H. Nakai, 
 T. Vreven, K. Throssell, J. A. Montgomery, Jr., J. E. Peralta, 
 F. Ogliaro, M. J. Bearpark, J. J. Heyd, E. N. Brothers, K. N. Kudin, 
 V. N. Staroverov, T. A. Keith, R. Kobayashi, J. Normand, 
 K. Raghavachari, A. P. Rendell, J. C. Burant, S. S. Iyengar, 
 J. Tomasi, M. Cossi, J. M. Millam, M. Klene, C. Adamo, R. Cammi, 
 J. W. Ochterski, R. L. Martin, K. Morokuma, O. Farkas, 
 J. B. Foresman, and D. J. Fox, Gaussian, Inc., Wallingford CT, 2019.
 
 ******************************************
 Gaussian 16:  ES64L-G16RevC.01  3-Jul-2019
                13-Jun-2025 
 ******************************************
 %mem=56GB
 %nprocshared=24
 Will use up to   24 processors via shared memory.
 %chk=molecule.chk
 --------------------------------
 #p stable=opt UM062X/TZVP em=gd3
 --------------------------------
 1/38=1,172=1/1;
 2/12=2,17=6,18=5,40=1/2;
 3/5=19,7=101,11=2,25=1,30=1,74=-55,116=2,124=31/1,2,3;
 4//1;
 5/5=2,38=5/2;
 6/7=2,8=2,9=2,10=2,28=1/1;
 8/6=1,10=90,11=11/1;
 9/8=-3,42=1,46=1/14;
 5/5=2,8=3,17=40,38=5/8(-2);
 6/7=2,8=2,9=2,10=2,28=1/1;
 99/5=1,9=1/99;
 Leave Link    1 at Fri Jun 13 17:18:53 2025, MaxMem=  7516192768 cpu:               1.3 elap:               0.1
 (Enter /share/apps/softwares/gaussian/16/g16/l101.exe)
 --------
 molecule
 --------
 Symbolic Z-matrix:
 Charge =  0 Multiplicity = 2
 C                    -2.56038   0.00005   0.00004 
 C                    -3.28115   1.08451  -0.52446 
 C                    -4.67191   1.08348  -0.52367 
 C                    -5.39097   0.00003   0.00001 
 C                    -4.67191  -1.08341   0.52371 
 C                    -3.28114  -1.08442   0.52452 
 C                    -1.08298   0.00006   0.00005 
 C                    -0.36159   0.58984  -1.04643 
 C                     1.02452   0.58578  -1.03939 
 C                     1.78856   0.00005   0.00005 
 C                     1.02451  -0.58568   1.03948 
 C                    -0.36159  -0.58973   1.04653 
 H                    -2.74723   1.94607  -0.9123 
 H                    -5.21484   1.93247  -0.92645 
 H                    -5.21482  -1.93241   0.92648 
 H                    -2.74722  -1.94597   0.91237 
 H                    -0.88067   1.0131   -1.89704 
 H                    -0.88067  -1.01299   1.89714 
 C                     3.25041  -0.00002   0.00003 
 C                     3.98509   1.23276  -0.29824 
 C                     5.05403   1.27475  -1.22531 
 C                     3.67665   2.46709   0.32307 
 C                     5.76175   2.43511  -1.51438 
 C                     4.36261   3.64442   0.0508 
 C                     5.40491   3.61493  -0.86986 
 H                     6.56047   2.41987  -2.24388 
 C                     3.98509  -1.23279   0.29823 
 C                     3.67647  -2.46717  -0.32289 
 C                     5.05422  -1.27474   1.2251 
 C                     4.36245  -3.6445   -0.05065 
 C                     5.76196  -2.4351    1.51411 
 C                     5.40495  -3.61496   0.86978 
 H                     4.10013  -4.56002  -0.56384 
 H                     6.56083  -2.41982   2.24344 
 Cl                    6.28163   5.08632  -1.22293 
 Cl                    5.48939  -0.1462   -2.15267 
 Cl                    6.2817   -5.08634   1.2228 
 Cl                    2.44799  -2.55985  -1.56809 
 Cl                    5.48981   0.14626   2.15229 
 Cl                    1.81245  -1.24832   2.46114 
 Cl                    1.81244   1.24837  -2.46108 
 C                    -7.58198  -0.87656  -0.85765 
 C                    -7.58202   0.87657   0.85763 
 C                    -6.91876  -1.76098  -1.76643 
 C                    -9.02608  -0.87657  -0.84788 
 C                    -9.02612   0.87655   0.84782 
 C                    -6.91884   1.76101   1.76642 
 C                    -7.62812  -2.59987  -2.58426 
 H                    -5.83607  -1.75461  -1.80427 
 C                    -9.72648  -1.77015  -1.7151 
 C                    -9.72655   1.77011   1.71503 
 H                    -5.83615   1.75466   1.80429 
 C                    -7.62823   2.59988   2.58424 
 C                    -9.05136  -2.61135  -2.55658 
 H                    -7.10233  -3.26082  -3.26641 
 H                    -10.81259  -1.76256  -1.69177 
 C                    -9.05147   2.61133   2.55653 
 H                    -10.81266   1.7625    1.69168 
 H                    -7.10248   3.26084   3.2664 
 H                    -9.59564  -3.28497  -3.21105 
 H                    -9.59579   3.28494   3.21099 
 C                    -6.88022   0.00001  0. 
 C                    -9.70735  -0.00002  -0.00003 
 H                    -10.7944  -0.00003  -0.00005 
 Cl                    2.44847   2.55966   1.56858 
 H                     4.10045   4.55991   0.56414 
 
 ITRead=  0  0  0  0  0  0  0  0  0  0  0  0  0  0  0  0  0  0  0  0
 ITRead=  0  0  0  0  0  0  0  0  0  0  0  0  0  0  0  0  0  0  0  0
 ITRead=  0  0  0  0  0  0  0  0  0  0  0  0  0  0  0  0  0  0  0  0
 ITRead=  0  0  0  0  0  0
 MicOpt= -1 -1 -1 -1 -1 -1 -1 -1 -1 -1 -1 -1 -1 -1 -1 -1 -1 -1 -1 -1
 MicOpt= -1 -1 -1 -1 -1 -1 -1 -1 -1 -1 -1 -1 -1 -1 -1 -1 -1 -1 -1 -1
 MicOpt= -1 -1 -1 -1 -1 -1 -1 -1 -1 -1 -1 -1 -1 -1 -1 -1 -1 -1 -1 -1
 MicOpt= -1 -1 -1 -1 -1 -1
 NAtoms=     66 NQM=       66 NQMF=       0 NMMI=      0 NMMIF=      0
                NMic=       0 NMicF=      0.
                    Isotopes and Nuclear Properties:
 (Nuclear quadrupole moments (NQMom) in fm**2, nuclear magnetic moments (NMagM)
  in nuclear magnetons)

  Atom         1           2           3           4           5           6           7           8           9          10
 IAtWgt=          12          12          12          12          12          12          12          12          12          12
 AtmWgt=  12.0000000  12.0000000  12.0000000  12.0000000  12.0000000  12.0000000  12.0000000  12.0000000  12.0000000  12.0000000
 NucSpn=           0           0           0           0           0           0           0           0           0           0
 AtZEff=  -0.0000000  -0.0000000  -0.0000000  -0.0000000  -0.0000000  -0.0000000  -0.0000000  -0.0000000  -0.0000000  -0.0000000
 NQMom=    0.0000000   0.0000000   0.0000000   0.0000000   0.0000000   0.0000000   0.0000000   0.0000000   0.0000000   0.0000000
 NMagM=    0.0000000   0.0000000   0.0000000   0.0000000   0.0000000   0.0000000   0.0000000   0.0000000   0.0000000   0.0000000
 AtZNuc=   6.0000000   6.0000000   6.0000000   6.0000000   6.0000000   6.0000000   6.0000000   6.0000000   6.0000000   6.0000000

  Atom        11          12          13          14          15          16          17          18          19          20
 IAtWgt=          12          12           1           1           1           1           1           1          12          12
 AtmWgt=  12.0000000  12.0000000   1.0078250   1.0078250   1.0078250   1.0078250   1.0078250   1.0078250  12.0000000  12.0000000
 NucSpn=           0           0           1           1           1           1           1           1           0           0
 AtZEff=  -0.0000000  -0.0000000  -0.0000000  -0.0000000  -0.0000000  -0.0000000  -0.0000000  -0.0000000  -0.0000000  -0.0000000
 NQMom=    0.0000000   0.0000000   0.0000000   0.0000000   0.0000000   0.0000000   0.0000000   0.0000000   0.0000000   0.0000000
 NMagM=    0.0000000   0.0000000   2.7928460   2.7928460   2.7928460   2.7928460   2.7928460   2.7928460   0.0000000   0.0000000
 AtZNuc=   6.0000000   6.0000000   1.0000000   1.0000000   1.0000000   1.0000000   1.0000000   1.0000000   6.0000000   6.0000000

  Atom        21          22          23          24          25          26          27          28          29          30
 IAtWgt=          12          12          12          12          12           1          12          12          12          12
 AtmWgt=  12.0000000  12.0000000  12.0000000  12.0000000  12.0000000   1.0078250  12.0000000  12.0000000  12.0000000  12.0000000
 NucSpn=           0           0           0           0           0           1           0           0           0           0
 AtZEff=  -0.0000000  -0.0000000  -0.0000000  -0.0000000  -0.0000000  -0.0000000  -0.0000000  -0.0000000  -0.0000000  -0.0000000
 NQMom=    0.0000000   0.0000000   0.0000000   0.0000000   0.0000000   0.0000000   0.0000000   0.0000000   0.0000000   0.0000000
 NMagM=    0.0000000   0.0000000   0.0000000   0.0000000   0.0000000   2.7928460   0.0000000   0.0000000   0.0000000   0.0000000
 AtZNuc=   6.0000000   6.0000000   6.0000000   6.0000000   6.0000000   1.0000000   6.0000000   6.0000000   6.0000000   6.0000000

  Atom        31          32          33          34          35          36          37          38          39          40
 IAtWgt=          12          12           1           1          35          35          35          35          35          35
 AtmWgt=  12.0000000  12.0000000   1.0078250   1.0078250  34.9688527  34.9688527  34.9688527  34.9688527  34.9688527  34.9688527
 NucSpn=           0           0           1           1           3           3           3           3           3           3
 AtZEff=  -0.0000000  -0.0000000  -0.0000000  -0.0000000  -0.0000000  -0.0000000  -0.0000000  -0.0000000  -0.0000000  -0.0000000
 NQMom=    0.0000000   0.0000000   0.0000000   0.0000000  -8.1650000  -8.1650000  -8.1650000  -8.1650000  -8.1650000  -8.1650000
 NMagM=    0.0000000   0.0000000   2.7928460   2.7928460   0.8218740   0.8218740   0.8218740   0.8218740   0.8218740   0.8218740
 AtZNuc=   6.0000000   6.0000000   1.0000000   1.0000000  17.0000000  17.0000000  17.0000000  17.0000000  17.0000000  17.0000000

  Atom        41          42          43          44          45          46          47          48          49          50
 IAtWgt=          35          12          12          12          12          12          12          12           1          12
 AtmWgt=  34.9688527  12.0000000  12.0000000  12.0000000  12.0000000  12.0000000  12.0000000  12.0000000   1.0078250  12.0000000
 NucSpn=           3           0           0           0           0           0           0           0           1           0
 AtZEff=  -0.0000000  -0.0000000  -0.0000000  -0.0000000  -0.0000000  -0.0000000  -0.0000000  -0.0000000  -0.0000000  -0.0000000
 NQMom=   -8.1650000   0.0000000   0.0000000   0.0000000   0.0000000   0.0000000   0.0000000   0.0000000   0.0000000   0.0000000
 NMagM=    0.8218740   0.0000000   0.0000000   0.0000000   0.0000000   0.0000000   0.0000000   0.0000000   2.7928460   0.0000000
 AtZNuc=  17.0000000   6.0000000   6.0000000   6.0000000   6.0000000   6.0000000   6.0000000   6.0000000   1.0000000   6.0000000

  Atom        51          52          53          54          55          56          57          58          59          60
 IAtWgt=          12           1          12          12           1           1          12           1           1           1
 AtmWgt=  12.0000000   1.0078250  12.0000000  12.0000000   1.0078250   1.0078250  12.0000000   1.0078250   1.0078250   1.0078250
 NucSpn=           0           1           0           0           1           1           0           1           1           1
 AtZEff=  -0.0000000  -0.0000000  -0.0000000  -0.0000000  -0.0000000  -0.0000000  -0.0000000  -0.0000000  -0.0000000  -0.0000000
 NQMom=    0.0000000   0.0000000   0.0000000   0.0000000   0.0000000   0.0000000   0.0000000   0.0000000   0.0000000   0.0000000
 NMagM=    0.0000000   2.7928460   0.0000000   0.0000000   2.7928460   2.7928460   0.0000000   2.7928460   2.7928460   2.7928460
 AtZNuc=   6.0000000   1.0000000   6.0000000   6.0000000   1.0000000   1.0000000   6.0000000   1.0000000   1.0000000   1.0000000

  Atom        61          62          63          64          65          66
 IAtWgt=           1          12          12           1          35           1
 AtmWgt=   1.0078250  12.0000000  12.0000000   1.0078250  34.9688527   1.0078250
 NucSpn=           1           0           0           1           3           1
 AtZEff=  -0.0000000  -0.0000000  -0.0000000  -0.0000000  -0.0000000  -0.0000000
 NQMom=    0.0000000   0.0000000   0.0000000   0.0000000  -8.1650000   0.0000000
 NMagM=    2.7928460   0.0000000   0.0000000   2.7928460   0.8218740   2.7928460
 AtZNuc=   1.0000000   6.0000000   6.0000000   1.0000000  17.0000000   1.0000000
 Leave Link  101 at Fri Jun 13 17:18:53 2025, MaxMem=  7516192768 cpu:               3.4 elap:               0.2
 (Enter /share/apps/softwares/gaussian/16/g16/l202.exe)
 Stoichiometry    C39H19Cl8(2)
 Framework group  C1[X(C39H19Cl8)]
 Deg. of freedom   192
 Full point group                 C1      NOp   1
 Largest Abelian subgroup         C1      NOp   1
 Largest concise Abelian subgroup C1      NOp   1
                         Standard orientation:                         
 ---------------------------------------------------------------------
 Center     Atomic      Atomic             Coordinates (Angstroms)
 Number     Number       Type             X           Y           Z
 ---------------------------------------------------------------------
      1          6           0       -2.560382   -0.000050   -0.000040
      2          6           0       -3.281146   -1.084511    0.524456
      3          6           0       -4.671914   -1.083479    0.523672
      4          6           0       -5.390973   -0.000027   -0.000014
      5          6           0       -4.671906    1.083413   -0.523714
      6          6           0       -3.281138    1.084422   -0.524523
      7          6           0       -1.082983   -0.000057   -0.000048
      8          6           0       -0.361588   -0.589841    1.046430
      9          6           0        1.024515   -0.585781    1.039386
     10          6           0        1.788555   -0.000045   -0.000045
     11          6           0        1.024507    0.585676   -1.039481
     12          6           0       -0.361593    0.589727   -1.046530
     13          1           0       -2.747230   -1.946068    0.912298
     14          1           0       -5.214836   -1.932467    0.926452
     15          1           0       -5.214822    1.932410   -0.926484
     16          1           0       -2.747216    1.945972   -0.912374
     17          1           0       -0.880667   -1.013098    1.897041
     18          1           0       -0.880674    1.012988   -1.897137
     19          6           0        3.250407    0.000016   -0.000026
     20          6           0        3.985089   -1.232764    0.298243
     21          6           0        5.054030   -1.274749    1.225311
     22          6           0        3.676649   -2.467090   -0.323072
     23          6           0        5.761746   -2.435113    1.514380
     24          6           0        4.362615   -3.644424   -0.050801
     25          6           0        5.404907   -3.614929    0.869861
     26          1           0        6.560470   -2.419872    2.243877
     27          6           0        3.985085    1.232793   -0.298230
     28          6           0        3.676467    2.467169    0.322890
     29          6           0        5.054217    1.274738   -1.225096
     30          6           0        4.362450    3.644501    0.050653
     31          6           0        5.761959    2.435096   -1.514112
     32          6           0        5.404949    3.614962   -0.869777
     33          1           0        4.100133    4.560022    0.563842
     34          1           0        6.560834    2.419815   -2.243443
     35         17           0        6.281629   -5.086318    1.222932
     36         17           0        5.489391    0.146199    2.152675
     37         17           0        6.281702    5.086343   -1.222796
     38         17           0        2.447992    2.559849    1.568092
     39         17           0        5.489809   -0.146257   -2.152286
     40         17           0        1.812445    1.248324   -2.461140
     41         17           0        1.812439   -1.248365    2.461083
     42          6           0       -7.581984    0.876564    0.857650
     43          6           0       -7.582022   -0.876574   -0.857629
     44          6           0       -6.918760    1.760980    1.766425
     45          6           0       -9.026078    0.876570    0.847875
     46          6           0       -9.026115   -0.876549   -0.847822
     47          6           0       -6.918837   -1.761005   -1.766418
     48          6           0       -7.628116    2.599867    2.584258
     49          1           0       -5.836071    1.754612    1.804272
     50          6           0       -9.726476    1.770145    1.715100
     51          6           0       -9.726552   -1.770108   -1.715031
     52          1           0       -5.836148   -1.754660   -1.804289
     53          6           0       -7.628229   -2.599876   -2.584236
     54          6           0       -9.051360    2.611354    2.556581
     55          1           0       -7.102333    3.260816    3.266411
     56          1           0      -10.812589    1.762559    1.691771
     57          6           0       -9.051473   -2.611331   -2.556528
     58          1           0      -10.812664   -1.762499   -1.691678
     59          1           0       -7.102475   -3.260836   -3.266400
     60          1           0       -9.595644    3.284973    3.211054
     61          1           0       -9.595786   -3.284939   -3.210989
     62          6           0       -6.880216   -0.000012    0.000003
     63          6           0       -9.707346    0.000018    0.000034
     64          1           0      -10.794401    0.000030    0.000046
     65         17           0        2.448472   -2.559660   -1.568579
     66          1           0        4.100448   -4.559909   -0.564138
 ---------------------------------------------------------------------
 Rotational constants (GHZ):           0.0861909           0.0204723           0.0187198
 Leave Link  202 at Fri Jun 13 17:18:54 2025, MaxMem=  7516192768 cpu:               1.4 elap:               0.1
 (Enter /share/apps/softwares/gaussian/16/g16/l301.exe)
 Standard basis: TZVP (5D, 7F)
 Ernie: Thresh=  0.10000D-02 Tol=  0.10000D-05 Strict=F.
 There are  1078 symmetry adapted cartesian basis functions of A   symmetry.
 There are  1031 symmetry adapted basis functions of A   symmetry.
  1031 basis functions,  1893 primitive gaussians,  1078 cartesian basis functions
   195 alpha electrons      194 beta electrons
       nuclear repulsion energy      7137.8219286378 Hartrees.
 IExCor= 4336 DFT=T Ex+Corr=M062X ExCW=0 ScaHFX=  0.540000
 ScaDFX=  1.000000  1.000000  1.000000  1.000000 ScalE2=  1.000000  1.000000
 IRadAn=      5 IRanWt=     -1 IRanGd=            0 ICorTp=0 IEmpDi=131
 NAtoms=   66 NActive=   66 NUniq=   66 SFac= 1.00D+00 NAtFMM=   60 NAOKFM=T Big=T
 Integral buffers will be    131072 words long.
 Raffenetti 2 integral format.
 Two-electron integral symmetry is turned on.
 R6Disp:  Grimme-D3 Dispersion energy=       -0.0061634262 Hartrees.
 Nuclear repulsion after empirical dispersion term =     7137.8157652117 Hartrees.
 Leave Link  301 at Fri Jun 13 17:18:54 2025, MaxMem=  7516192768 cpu:               2.0 elap:               0.1
 (Enter /share/apps/softwares/gaussian/16/g16/l302.exe)
 NPDir=0 NMtPBC=     1 NCelOv=     1 NCel=       1 NClECP=     1 NCelD=      1
         NCelK=      1 NCelE2=     1 NClLst=     1 CellRange=     0.0.
 One-electron integrals computed using PRISM.
 One-electron integral symmetry used in STVInt
 NBasis=  1031 RedAO= T EigKep=  4.13D-06  NBF=  1031
 NBsUse=  1031 1.00D-06 EigRej= -1.00D+00 NBFU=  1031
 Precomputing XC quadrature grid using
 IXCGrd= 4 IRadAn=           5 IRanWt=          -1 IRanGd=           0 AccXCQ= 0.00D+00.
 Generated NRdTot=       0 NPtTot=           0 NUsed=           0 NTot=          32
 NSgBfM=   973   967   967   968   973 MxSgAt=    66 MxSgA2=    66.
 Leave Link  302 at Fri Jun 13 17:18:56 2025, MaxMem=  7516192768 cpu:              60.5 elap:               2.6
 (Enter /share/apps/softwares/gaussian/16/g16/l303.exe)
 DipDrv:  MaxL=1.
 Leave Link  303 at Fri Jun 13 17:18:57 2025, MaxMem=  7516192768 cpu:               7.4 elap:               0.4
 (Enter /share/apps/softwares/gaussian/16/g16/l401.exe)
 ExpMin= 9.52D-02 ExpMax= 6.95D+04 ExpMxC= 2.37D+03 IAcc=3 IRadAn=         5 AccDes= 0.00D+00
 Harris functional with IExCor= 1009 and IRadAn=       5 diagonalized for initial guess.
 HarFok:  IExCor= 1009 AccDes= 0.00D+00 IRadAn=         5 IDoV= 1 UseB2=F ITyADJ=14
 ICtDFT=  3500011 ScaDFX=  1.000000  1.000000  1.000000  1.000000
 FoFCou: FMM=F IPFlag=           0 FMFlag=      100000 FMFlg1=        2001
         NFxFlg=           0 DoJE=T BraDBF=F KetDBF=T FulRan=T
         wScrn=  0.000000 ICntrl=       500 IOpCl=  0 I1Cent=   200000004 NGrid=           0
         NMat0=    1 NMatS0=      1 NMatT0=    0 NMatD0=    1 NMtDS0=    0 NMtDT0=    0
 Petite list used in FoFCou.
 Harris En= -5176.29680250190    
 JPrj=0 DoOrth=F DoCkMO=F.
 Initial guess <Sx>= 0.0000 <Sy>= 0.0000 <Sz>= 0.5000 <S**2>= 0.7500 S= 0.5000
 Leave Link  401 at Fri Jun 13 17:19:04 2025, MaxMem=  7516192768 cpu:             160.0 elap:               6.8
 (Enter /share/apps/softwares/gaussian/16/g16/l502.exe)
 Integral symmetry usage will be decided dynamically.
 UHF open shell SCF:
 Using DIIS extrapolation, IDIIS=  1040.
 NGot=  7516192768 LenX=  7513831124 LenY=  7512667962
 Requested convergence on RMS density matrix=1.00D-08 within 128 cycles.
 Requested convergence on MAX density matrix=1.00D-06.
 Requested convergence on             energy=1.00D-06.
 No special actions if energy rises.
 Fock matrices will be formed incrementally for  20 cycles.
 Integral accuracy reduced to 1.0D-05 until final iterations.

 Cycle   1  Pass 0  IDiag  1:
 FoFJK:  IHMeth= 1 ICntrl=       0 DoSepK=F KAlg= 0 I1Cent=           0 FoldK=F
 IRaf= 610000000 NMat=       1 IRICut=       1 DoRegI=T DoRafI=F ISym2E= 0 IDoP0=0 IntGTp=1.
 FoFCou: FMM=T IPFlag=           0 FMFlag=      100000 FMFlg1=        2001
         NFxFlg=           0 DoJE=F BraDBF=F KetDBF=F FulRan=T
         wScrn=  0.000000 ICntrl=         0 IOpCl=  1 I1Cent=           0 NGrid=           0
         NMat0=    1 NMatS0=      1 NMatT0=    0 NMatD0=    1 NMtDS0=    0 NMtDT0=    0
 Symmetry not used in FoFCou.
 FMM levels:  10  Number of levels for PrismC:   9
 E= -5177.86375284337    
 DIIS: error= 3.28D-02 at cycle   1 NSaved=   1.
 NSaved= 1 IEnMin= 1 EnMin= -5177.86375284337     IErMin= 1 ErrMin= 3.28D-02
 ErrMax= 3.28D-02  0.00D+00 EMaxC= 1.00D-01 BMatC= 5.95D+00 BMatP= 5.95D+00
 IDIUse=3 WtCom= 6.72D-01 WtEn= 3.28D-01
 Coeff-Com:  0.100D+01
 Coeff-En:   0.100D+01
 Coeff:      0.100D+01
 Gap=     0.219 Goal=   None    Shift=    0.000
 Gap=     0.278 Goal=   None    Shift=    0.000
 GapD=    0.219 DampG=1.000 DampE=0.500 DampFc=0.5000 IDamp=-1.
 Damping current iteration by 5.00D-01
 RMSDP=1.55D+02 MaxDP=2.71D+04              OVMax= 9.76D-01

 Problem detected with inexpensive integrals.
 Switching to full accuracy and repeating last cycle.
 Cycle   2  Pass 1  IDiag  1:
 E= -5177.86451660866     Delta-E=       -0.000763765296 Rises=F Damp=F
 DIIS: error= 3.28D-02 at cycle   1 NSaved=   1.
 NSaved= 1 IEnMin= 1 EnMin= -5177.86451660866     IErMin= 1 ErrMin= 3.28D-02
 ErrMax= 3.28D-02  0.00D+00 EMaxC= 1.00D-01 BMatC= 5.92D+00 BMatP= 5.92D+00
 IDIUse=3 WtCom= 6.72D-01 WtEn= 3.28D-01
 Coeff-Com:  0.100D+01
 Coeff-En:   0.100D+01
 Coeff:      0.100D+01
 Gap=     0.219 Goal=   None    Shift=    0.000
 Gap=     0.278 Goal=   None    Shift=    0.000
 GapD=    0.219 DampG=1.000 DampE=0.500 DampFc=0.5000 IDamp=-1.
 Damping current iteration by 5.00D-01
 RMSDP=8.00D-03 MaxDP=1.35D+00 DE=-7.64D-04 OVMax= 2.81D-01

 Cycle   3  Pass 1  IDiag  1:
 RMSU=  2.90D-03    CP:  8.25D-01
 E= -5178.43349614659     Delta-E=       -0.568979537929 Rises=F Damp=T
 DIIS: error= 7.59D-03 at cycle   2 NSaved=   2.
 NSaved= 2 IEnMin= 2 EnMin= -5178.43349614659     IErMin= 2 ErrMin= 7.59D-03
 ErrMax= 7.59D-03  0.00D+00 EMaxC= 1.00D-01 BMatC= 5.38D-01 BMatP= 5.92D+00
 IDIUse=3 WtCom= 9.24D-01 WtEn= 7.59D-02
 Coeff-Com: -0.142D+00 0.114D+01
 Coeff-En:   0.000D+00 0.100D+01
 Coeff:     -0.131D+00 0.113D+01
 Gap=     0.268 Goal=   None    Shift=    0.000
 Gap=     0.096 Goal=   None    Shift=    0.000
 GapD=    0.096 DampG=0.500 DampE=1.000 DampFc=0.5000 IDamp=-1.
 Damping current iteration by 5.00D-01
 RMSDP=2.70D-03 MaxDP=2.82D-01 DE=-5.69D-01 OVMax= 1.48D-01

 Cycle   4  Pass 1  IDiag  1:
 RMSU=  1.31D-03    CP:  8.20D-01  8.95D-01
 E= -5178.71045740581     Delta-E=       -0.276961259218 Rises=F Damp=T
 DIIS: error= 4.16D-03 at cycle   3 NSaved=   3.
 NSaved= 3 IEnMin= 3 EnMin= -5178.71045740581     IErMin= 3 ErrMin= 4.16D-03
 ErrMax= 4.16D-03  0.00D+00 EMaxC= 1.00D-01 BMatC= 1.40D-01 BMatP= 5.38D-01
 IDIUse=3 WtCom= 9.58D-01 WtEn= 4.16D-02
 Coeff-Com: -0.120D+00-0.366D+00 0.149D+01
 Coeff-En:   0.000D+00 0.000D+00 0.100D+01
 Coeff:     -0.115D+00-0.351D+00 0.147D+01
 Gap=     0.221 Goal=   None    Shift=    0.000
 Gap=     0.152 Goal=   None    Shift=    0.000
 RMSDP=1.76D-03 MaxDP=3.49D-01 DE=-2.77D-01 OVMax= 5.05D-02

 Cycle   5  Pass 1  IDiag  1:
 RMSU=  1.03D-03    CP:  7.50D-01  1.11D+00  1.50D+00
 E= -5179.00045547748     Delta-E=       -0.289998071674 Rises=F Damp=F
 DIIS: error= 3.14D-03 at cycle   4 NSaved=   4.
 NSaved= 4 IEnMin= 4 EnMin= -5179.00045547748     IErMin= 4 ErrMin= 3.14D-03
 ErrMax= 3.14D-03  0.00D+00 EMaxC= 1.00D-01 BMatC= 2.88D-02 BMatP= 1.40D-01
 IDIUse=3 WtCom= 9.69D-01 WtEn= 3.14D-02
 Coeff-Com: -0.513D-01-0.269D+00 0.796D+00 0.525D+00
 Coeff-En:   0.000D+00 0.000D+00 0.000D+00 0.100D+01
 Coeff:     -0.497D-01-0.260D+00 0.771D+00 0.539D+00
 Gap=     0.197 Goal=   None    Shift=    0.000
 Gap=     0.136 Goal=   None    Shift=    0.000
 RMSDP=6.50D-04 MaxDP=1.50D-01 DE=-2.90D-01 OVMax= 2.51D-02

 Cycle   6  Pass 1  IDiag  1:
 RMSU=  3.40D-04    CP:  7.62D-01  1.04D+00  1.66D+00  5.85D-01
 E= -5179.00802026213     Delta-E=       -0.007564784642 Rises=F Damp=F
 DIIS: error= 1.15D-03 at cycle   5 NSaved=   5.
 NSaved= 5 IEnMin= 5 EnMin= -5179.00802026213     IErMin= 5 ErrMin= 1.15D-03
 ErrMax= 1.15D-03  0.00D+00 EMaxC= 1.00D-01 BMatC= 3.21D-03 BMatP= 2.88D-02
 IDIUse=3 WtCom= 9.88D-01 WtEn= 1.15D-02
 Coeff-Com: -0.145D-01-0.111D+00 0.283D+00 0.291D+00 0.552D+00
 Coeff-En:   0.000D+00 0.000D+00 0.000D+00 0.000D+00 0.100D+01
 Coeff:     -0.143D-01-0.110D+00 0.279D+00 0.287D+00 0.557D+00
 Gap=     0.194 Goal=   None    Shift=    0.000
 Gap=     0.140 Goal=   None    Shift=    0.000
 RMSDP=1.48D-04 MaxDP=3.32D-02 DE=-7.56D-03 OVMax= 1.32D-02

 Cycle   7  Pass 1  IDiag  1:
 RMSU=  1.17D-04    CP:  7.64D-01  1.03D+00  1.66D+00  6.32D-01  8.34D-01
 E= -5179.00906014373     Delta-E=       -0.001039881605 Rises=F Damp=F
 DIIS: error= 5.88D-04 at cycle   6 NSaved=   6.
 NSaved= 6 IEnMin= 6 EnMin= -5179.00906014373     IErMin= 6 ErrMin= 5.88D-04
 ErrMax= 5.88D-04  0.00D+00 EMaxC= 1.00D-01 BMatC= 5.03D-04 BMatP= 3.21D-03
 IDIUse=3 WtCom= 9.94D-01 WtEn= 5.88D-03
 Coeff-Com:  0.551D-02 0.398D-02-0.404D-01 0.157D-01 0.253D+00 0.762D+00
 Coeff-En:   0.000D+00 0.000D+00 0.000D+00 0.000D+00 0.000D+00 0.100D+01
 Coeff:      0.548D-02 0.396D-02-0.401D-01 0.156D-01 0.251D+00 0.764D+00
 Gap=     0.195 Goal=   None    Shift=    0.000
 Gap=     0.143 Goal=   None    Shift=    0.000
 RMSDP=8.93D-05 MaxDP=2.55D-02 DE=-1.04D-03 OVMax= 9.75D-03

 Cycle   8  Pass 1  IDiag  1:
 RMSU=  7.32D-05    CP:  7.66D-01  1.02D+00  1.68D+00  6.25D-01  9.37D-01
                    CP:  1.04D+00
 E= -5179.00937363117     Delta-E=       -0.000313487442 Rises=F Damp=F
 DIIS: error= 5.17D-04 at cycle   7 NSaved=   7.
 NSaved= 7 IEnMin= 7 EnMin= -5179.00937363117     IErMin= 7 ErrMin= 5.17D-04
 ErrMax= 5.17D-04  0.00D+00 EMaxC= 1.00D-01 BMatC= 1.00D-04 BMatP= 5.03D-04
 IDIUse=3 WtCom= 9.95D-01 WtEn= 5.17D-03
 Coeff-Com:  0.558D-02 0.288D-01-0.834D-01-0.679D-01-0.601D-01 0.234D+00
 Coeff-Com:  0.943D+00
 Coeff-En:   0.000D+00 0.000D+00 0.000D+00 0.000D+00 0.000D+00 0.000D+00
 Coeff-En:   0.100D+01
 Coeff:      0.555D-02 0.287D-01-0.830D-01-0.676D-01-0.598D-01 0.233D+00
 Coeff:      0.943D+00
 Gap=     0.195 Goal=   None    Shift=    0.000
 Gap=     0.146 Goal=   None    Shift=    0.000
 RMSDP=5.24D-05 MaxDP=1.19D-02 DE=-3.13D-04 OVMax= 9.97D-03

 Cycle   9  Pass 1  IDiag  1:
 RMSU=  3.24D-05    CP:  7.66D-01  1.02D+00  1.68D+00  6.24D-01  9.77D-01
                    CP:  1.30D+00  1.27D+00
 E= -5179.00949020337     Delta-E=       -0.000116572199 Rises=F Damp=F
 DIIS: error= 2.01D-04 at cycle   8 NSaved=   8.
 NSaved= 8 IEnMin= 8 EnMin= -5179.00949020337     IErMin= 8 ErrMin= 2.01D-04
 ErrMax= 2.01D-04  0.00D+00 EMaxC= 1.00D-01 BMatC= 4.32D-05 BMatP= 1.00D-04
 IDIUse=3 WtCom= 9.98D-01 WtEn= 2.01D-03
 Coeff-Com:  0.105D-02 0.127D-01-0.285D-01-0.337D-01-0.899D-01-0.125D+00
 Coeff-Com:  0.459D+00 0.804D+00
 Coeff-En:   0.000D+00 0.000D+00 0.000D+00 0.000D+00 0.000D+00 0.000D+00
 Coeff-En:   0.000D+00 0.100D+01
 Coeff:      0.104D-02 0.126D-01-0.285D-01-0.336D-01-0.897D-01-0.125D+00
 Coeff:      0.458D+00 0.805D+00
 Gap=     0.195 Goal=   None    Shift=    0.000
 Gap=     0.147 Goal=   None    Shift=    0.000
 RMSDP=3.42D-05 MaxDP=9.75D-03 DE=-1.17D-04 OVMax= 4.72D-03

 Cycle  10  Pass 1  IDiag  1:
 RMSU=  1.81D-05    CP:  7.66D-01  1.02D+00  1.69D+00  6.18D-01  1.02D+00
                    CP:  1.40D+00  1.55D+00  1.07D+00
 E= -5179.00952232422     Delta-E=       -0.000032120848 Rises=F Damp=F
 DIIS: error= 1.06D-04 at cycle   9 NSaved=   9.
 NSaved= 9 IEnMin= 9 EnMin= -5179.00952232422     IErMin= 9 ErrMin= 1.06D-04
 ErrMax= 1.06D-04  0.00D+00 EMaxC= 1.00D-01 BMatC= 8.43D-06 BMatP= 4.32D-05
 IDIUse=3 WtCom= 9.99D-01 WtEn= 1.06D-03
 Coeff-Com: -0.108D-02-0.154D-02 0.880D-02 0.361D-02-0.193D-01-0.113D+00
 Coeff-Com: -0.356D-01 0.355D+00 0.803D+00
 Coeff-En:   0.000D+00 0.000D+00 0.000D+00 0.000D+00 0.000D+00 0.000D+00
 Coeff-En:   0.000D+00 0.000D+00 0.100D+01
 Coeff:     -0.108D-02-0.154D-02 0.879D-02 0.361D-02-0.193D-01-0.113D+00
 Coeff:     -0.356D-01 0.355D+00 0.803D+00
 Gap=     0.195 Goal=   None    Shift=    0.000
 Gap=     0.148 Goal=   None    Shift=    0.000
 RMSDP=1.40D-05 MaxDP=1.83D-03 DE=-3.21D-05 OVMax= 2.07D-03

 Cycle  11  Pass 1  IDiag  1:
 RMSU=  6.78D-06    CP:  7.66D-01  1.02D+00  1.69D+00  6.20D-01  1.02D+00
                    CP:  1.39D+00  1.64D+00  1.34D+00  1.05D+00
 E= -5179.00952752983     Delta-E=       -0.000005205609 Rises=F Damp=F
 DIIS: error= 2.67D-05 at cycle  10 NSaved=  10.
 NSaved=10 IEnMin=10 EnMin= -5179.00952752983     IErMin=10 ErrMin= 2.67D-05
 ErrMax= 2.67D-05  0.00D+00 EMaxC= 1.00D-01 BMatC= 2.75D-06 BMatP= 8.43D-06
 IDIUse=1 WtCom= 1.00D+00 WtEn= 0.00D+00
 Coeff-Com: -0.831D-03-0.355D-02 0.110D-01 0.966D-02 0.117D-01-0.302D-01
 Coeff-Com: -0.129D+00 0.148D-01 0.466D+00 0.651D+00
 Coeff:     -0.831D-03-0.355D-02 0.110D-01 0.966D-02 0.117D-01-0.302D-01
 Coeff:     -0.129D+00 0.148D-01 0.466D+00 0.651D+00
 Gap=     0.195 Goal=   None    Shift=    0.000
 Gap=     0.148 Goal=   None    Shift=    0.000
 RMSDP=6.97D-06 MaxDP=1.67D-03 DE=-5.21D-06 OVMax= 6.27D-04

 Cycle  12  Pass 1  IDiag  1:
 RMSU=  4.21D-06    CP:  7.66D-01  1.02D+00  1.69D+00  6.18D-01  1.02D+00
                    CP:  1.39D+00  1.68D+00  1.36D+00  1.25D+00  9.71D-01
 E= -5179.00952855953     Delta-E=       -0.000001029704 Rises=F Damp=F
 DIIS: error= 1.57D-05 at cycle  11 NSaved=  11.
 NSaved=11 IEnMin=11 EnMin= -5179.00952855953     IErMin=11 ErrMin= 1.57D-05
 ErrMax= 1.57D-05  0.00D+00 EMaxC= 1.00D-01 BMatC= 2.25D-07 BMatP= 2.75D-06
 IDIUse=1 WtCom= 1.00D+00 WtEn= 0.00D+00
 Coeff-Com: -0.257D-03-0.143D-02 0.399D-02 0.380D-02 0.761D-02-0.104D-02
 Coeff-Com: -0.565D-01-0.264D-01 0.134D+00 0.262D+00 0.674D+00
 Coeff:     -0.257D-03-0.143D-02 0.399D-02 0.380D-02 0.761D-02-0.104D-02
 Coeff:     -0.565D-01-0.264D-01 0.134D+00 0.262D+00 0.674D+00
 Gap=     0.195 Goal=   None    Shift=    0.000
 Gap=     0.148 Goal=   None    Shift=    0.000
 RMSDP=2.79D-06 MaxDP=6.65D-04 DE=-1.03D-06 OVMax= 2.21D-04

 Cycle  13  Pass 1  IDiag  1:
 RMSU=  1.73D-06    CP:  7.66D-01  1.02D+00  1.69D+00  6.19D-01  1.02D+00
                    CP:  1.39D+00  1.67D+00  1.37D+00  1.29D+00  1.07D+00
                    CP:  9.21D-01
 E= -5179.00952864015     Delta-E=       -0.000000080616 Rises=F Damp=F
 DIIS: error= 7.82D-06 at cycle  12 NSaved=  12.
 NSaved=12 IEnMin=12 EnMin= -5179.00952864015     IErMin=12 ErrMin= 7.82D-06
 ErrMax= 7.82D-06  0.00D+00 EMaxC= 1.00D-01 BMatC= 1.20D-07 BMatP= 2.25D-07
 IDIUse=1 WtCom= 1.00D+00 WtEn= 0.00D+00
 Coeff-Com:  0.543D-04 0.832D-04-0.467D-03-0.306D-03 0.151D-02 0.667D-02
 Coeff-Com: -0.396D-02-0.181D-01-0.329D-01-0.226D-01 0.438D+00 0.632D+00
 Coeff:      0.543D-04 0.832D-04-0.467D-03-0.306D-03 0.151D-02 0.667D-02
 Coeff:     -0.396D-02-0.181D-01-0.329D-01-0.226D-01 0.438D+00 0.632D+00
 Gap=     0.195 Goal=   None    Shift=    0.000
 Gap=     0.148 Goal=   None    Shift=    0.000
 RMSDP=1.58D-06 MaxDP=3.19D-04 DE=-8.06D-08 OVMax= 1.16D-04

 Cycle  14  Pass 1  IDiag  1:
 RMSU=  6.40D-07    CP:  7.66D-01  1.02D+00  1.69D+00  6.18D-01  1.02D+00
                    CP:  1.39D+00  1.67D+00  1.37D+00  1.32D+00  1.12D+00
                    CP:  1.18D+00  1.05D+00
 E= -5179.00952868962     Delta-E=       -0.000000049471 Rises=F Damp=F
 DIIS: error= 2.92D-06 at cycle  13 NSaved=  13.
 NSaved=13 IEnMin=13 EnMin= -5179.00952868962     IErMin=13 ErrMin= 2.92D-06
 ErrMax= 2.92D-06  0.00D+00 EMaxC= 1.00D-01 BMatC= 1.01D-08 BMatP= 1.20D-07
 IDIUse=1 WtCom= 1.00D+00 WtEn= 0.00D+00
 Coeff-Com:  0.516D-04 0.258D-03-0.765D-03-0.679D-03-0.520D-03 0.279D-02
 Coeff-Com:  0.705D-02-0.109D-02-0.322D-01-0.567D-01 0.430D-01 0.213D+00
 Coeff-Com:  0.825D+00
 Coeff:      0.516D-04 0.258D-03-0.765D-03-0.679D-03-0.520D-03 0.279D-02
 Coeff:      0.705D-02-0.109D-02-0.322D-01-0.567D-01 0.430D-01 0.213D+00
 Coeff:      0.825D+00
 Gap=     0.195 Goal=   None    Shift=    0.000
 Gap=     0.148 Goal=   None    Shift=    0.000
 RMSDP=7.33D-07 MaxDP=1.52D-04 DE=-4.95D-08 OVMax= 7.66D-05

 Cycle  15  Pass 1  IDiag  1:
 RMSU=  3.07D-07    CP:  7.66D-01  1.02D+00  1.69D+00  6.19D-01  1.02D+00
                    CP:  1.39D+00  1.67D+00  1.37D+00  1.33D+00  1.16D+00
                    CP:  1.27D+00  1.25D+00  1.09D+00
 E= -5179.00952869821     Delta-E=       -0.000000008591 Rises=F Damp=F
 DIIS: error= 1.54D-06 at cycle  14 NSaved=  14.
 NSaved=14 IEnMin=14 EnMin= -5179.00952869821     IErMin=14 ErrMin= 1.54D-06
 ErrMax= 1.54D-06  0.00D+00 EMaxC= 1.00D-01 BMatC= 3.20D-09 BMatP= 1.01D-08
 IDIUse=1 WtCom= 1.00D+00 WtEn= 0.00D+00
 Coeff-Com:  0.109D-05 0.761D-04-0.149D-03-0.160D-03-0.571D-03-0.694D-03
 Coeff-Com:  0.357D-02 0.446D-02-0.392D-02-0.176D-01-0.102D+00-0.873D-01
 Coeff-Com:  0.358D+00 0.845D+00
 Coeff:      0.109D-05 0.761D-04-0.149D-03-0.160D-03-0.571D-03-0.694D-03
 Coeff:      0.357D-02 0.446D-02-0.392D-02-0.176D-01-0.102D+00-0.873D-01
 Coeff:      0.358D+00 0.845D+00
 Gap=     0.195 Goal=   None    Shift=    0.000
 Gap=     0.148 Goal=   None    Shift=    0.000
 RMSDP=4.47D-07 MaxDP=7.29D-05 DE=-8.59D-09 OVMax= 5.45D-05

 Cycle  16  Pass 1  IDiag  1:
 RMSU=  1.62D-07    CP:  7.66D-01  1.02D+00  1.69D+00  6.18D-01  1.02D+00
                    CP:  1.39D+00  1.67D+00  1.37D+00  1.33D+00  1.18D+00
                    CP:  1.32D+00  1.36D+00  1.38D+00  1.22D+00
 E= -5179.00952870202     Delta-E=       -0.000000003813 Rises=F Damp=F
 DIIS: error= 1.07D-06 at cycle  15 NSaved=  15.
 NSaved=15 IEnMin=15 EnMin= -5179.00952870202     IErMin=15 ErrMin= 1.07D-06
 ErrMax= 1.07D-06  0.00D+00 EMaxC= 1.00D-01 BMatC= 8.23D-10 BMatP= 3.20D-09
 IDIUse=1 WtCom= 1.00D+00 WtEn= 0.00D+00
 Coeff-Com: -0.129D-04-0.602D-04 0.184D-03 0.158D-03 0.186D-04-0.905D-03
 Coeff-Com: -0.105D-02 0.925D-03 0.771D-02 0.131D-01-0.296D-01-0.787D-01
 Coeff-Com: -0.134D+00 0.164D+00 0.106D+01
 Coeff:     -0.129D-04-0.602D-04 0.184D-03 0.158D-03 0.186D-04-0.905D-03
 Coeff:     -0.105D-02 0.925D-03 0.771D-02 0.131D-01-0.296D-01-0.787D-01
 Coeff:     -0.134D+00 0.164D+00 0.106D+01
 Gap=     0.195 Goal=   None    Shift=    0.000
 Gap=     0.148 Goal=   None    Shift=    0.000
 RMSDP=2.29D-07 MaxDP=4.34D-05 DE=-3.81D-09 OVMax= 3.44D-05

 Cycle  17  Pass 1  IDiag  1:
 RMSU=  8.55D-08    CP:  7.66D-01  1.02D+00  1.69D+00  6.18D-01  1.02D+00
                    CP:  1.39D+00  1.67D+00  1.36D+00  1.34D+00  1.19D+00
                    CP:  1.33D+00  1.43D+00  1.49D+00  1.54D+00  1.38D+00
 E= -5179.00952870347     Delta-E=       -0.000000001450 Rises=F Damp=F
 DIIS: error= 5.85D-07 at cycle  16 NSaved=  16.
 NSaved=16 IEnMin=16 EnMin= -5179.00952870347     IErMin=16 ErrMin= 5.85D-07
 ErrMax= 5.85D-07  0.00D+00 EMaxC= 1.00D-01 BMatC= 3.94D-10 BMatP= 8.23D-10
 IDIUse=1 WtCom= 1.00D+00 WtEn= 0.00D+00
 Coeff-Com: -0.526D-05-0.596D-04 0.143D-03 0.135D-03 0.200D-03-0.220D-03
 Coeff-Com: -0.161D-02-0.133D-02 0.516D-02 0.140D-01 0.213D-01-0.135D-01
 Coeff-Com: -0.205D+00-0.247D+00 0.558D+00 0.870D+00
 Coeff:     -0.526D-05-0.596D-04 0.143D-03 0.135D-03 0.200D-03-0.220D-03
 Coeff:     -0.161D-02-0.133D-02 0.516D-02 0.140D-01 0.213D-01-0.135D-01
 Coeff:     -0.205D+00-0.247D+00 0.558D+00 0.870D+00
 Gap=     0.195 Goal=   None    Shift=    0.000
 Gap=     0.148 Goal=   None    Shift=    0.000
 RMSDP=1.32D-07 MaxDP=1.54D-05 DE=-1.45D-09 OVMax= 2.31D-05

 Cycle  18  Pass 1  IDiag  1:
 RMSU=  6.09D-08    CP:  7.66D-01  1.02D+00  1.69D+00  6.18D-01  1.02D+00
                    CP:  1.39D+00  1.67D+00  1.36D+00  1.34D+00  1.19D+00
                    CP:  1.34D+00  1.45D+00  1.56D+00  1.70D+00  1.76D+00
                    CP:  1.17D+00
 E= -5179.00952870404     Delta-E=       -0.000000000568 Rises=F Damp=F
 DIIS: error= 3.26D-07 at cycle  17 NSaved=  17.
 NSaved=17 IEnMin=17 EnMin= -5179.00952870404     IErMin=17 ErrMin= 3.26D-07
 ErrMax= 3.26D-07  0.00D+00 EMaxC= 1.00D-01 BMatC= 9.43D-11 BMatP= 3.94D-10
 IDIUse=1 WtCom= 1.00D+00 WtEn= 0.00D+00
 Coeff-Com:  0.150D-05-0.102D-04 0.126D-04 0.172D-04 0.796D-04 0.115D-03
 Coeff-Com: -0.340D-03-0.884D-03 0.179D-03 0.273D-02 0.170D-01 0.146D-01
 Coeff-Com: -0.471D-01-0.152D+00-0.587D-01 0.386D+00 0.839D+00
 Coeff:      0.150D-05-0.102D-04 0.126D-04 0.172D-04 0.796D-04 0.115D-03
 Coeff:     -0.340D-03-0.884D-03 0.179D-03 0.273D-02 0.170D-01 0.146D-01
 Coeff:     -0.471D-01-0.152D+00-0.587D-01 0.386D+00 0.839D+00
 Gap=     0.195 Goal=   None    Shift=    0.000
 Gap=     0.148 Goal=   None    Shift=    0.000
 RMSDP=5.62D-08 MaxDP=1.11D-05 DE=-5.68D-10 OVMax= 7.80D-06

 Cycle  19  Pass 1  IDiag  1:
 RMSU=  2.84D-08    CP:  7.66D-01  1.02D+00  1.69D+00  6.18D-01  1.02D+00
                    CP:  1.39D+00  1.67D+00  1.36D+00  1.34D+00  1.19D+00
                    CP:  1.34D+00  1.44D+00  1.56D+00  1.73D+00  1.86D+00
                    CP:  1.54D+00  1.25D+00
 E= -5179.00952870420     Delta-E=       -0.000000000155 Rises=F Damp=F
 DIIS: error= 1.09D-07 at cycle  18 NSaved=  18.
 NSaved=18 IEnMin=18 EnMin= -5179.00952870420     IErMin=18 ErrMin= 1.09D-07
 ErrMax= 1.09D-07  0.00D+00 EMaxC= 1.00D-01 BMatC= 1.71D-11 BMatP= 9.43D-11
 IDIUse=1 WtCom= 1.00D+00 WtEn= 0.00D+00
 Coeff-Com:  0.174D-05 0.117D-04-0.317D-04-0.258D-04-0.142D-04 0.902D-04
 Coeff-Com:  0.285D-03-0.108D-04-0.120D-02-0.251D-02 0.688D-03 0.839D-02
 Coeff-Com:  0.371D-01 0.104D-01-0.164D+00-0.915D-01 0.277D+00 0.925D+00
 Coeff:      0.174D-05 0.117D-04-0.317D-04-0.258D-04-0.142D-04 0.902D-04
 Coeff:      0.285D-03-0.108D-04-0.120D-02-0.251D-02 0.688D-03 0.839D-02
 Coeff:      0.371D-01 0.104D-01-0.164D+00-0.915D-01 0.277D+00 0.925D+00
 Gap=     0.195 Goal=   None    Shift=    0.000
 Gap=     0.148 Goal=   None    Shift=    0.000
 RMSDP=4.49D-08 MaxDP=1.18D-05 DE=-1.55D-10 OVMax= 3.36D-06

 Cycle  20  Pass 1  IDiag  1:
 RMSU=  1.10D-08    CP:  7.66D-01  1.02D+00  1.69D+00  6.18D-01  1.02D+00
                    CP:  1.39D+00  1.67D+00  1.36D+00  1.34D+00  1.19D+00
                    CP:  1.34D+00  1.43D+00  1.55D+00  1.72D+00  1.88D+00
                    CP:  1.66D+00  1.62D+00  1.35D+00
 E= -5179.00952870415     Delta-E=        0.000000000042 Rises=F Damp=F
 DIIS: error= 4.83D-08 at cycle  19 NSaved=  19.
 NSaved=19 IEnMin=18 EnMin= -5179.00952870420     IErMin=19 ErrMin= 4.83D-08
 ErrMax= 4.83D-08  0.00D+00 EMaxC= 1.00D-01 BMatC= 3.95D-12 BMatP= 1.71D-11
 IDIUse=1 WtCom= 1.00D+00 WtEn= 0.00D+00
 Coeff-Com:  0.196D-06 0.670D-05-0.143D-04-0.128D-04-0.194D-04 0.107D-04
 Coeff-Com:  0.175D-03 0.192D-03-0.495D-03-0.160D-02-0.347D-02-0.111D-03
 Coeff-Com:  0.233D-01 0.374D-01-0.441D-01-0.119D+00-0.810D-01 0.357D+00
 Coeff-Com:  0.831D+00
 Coeff:      0.196D-06 0.670D-05-0.143D-04-0.128D-04-0.194D-04 0.107D-04
 Coeff:      0.175D-03 0.192D-03-0.495D-03-0.160D-02-0.347D-02-0.111D-03
 Coeff:      0.233D-01 0.374D-01-0.441D-01-0.119D+00-0.810D-01 0.357D+00
 Coeff:      0.831D+00
 Gap=     0.195 Goal=   None    Shift=    0.000
 Gap=     0.148 Goal=   None    Shift=    0.000
 RMSDP=2.36D-08 MaxDP=6.38D-06 DE= 4.18D-11 OVMax= 9.90D-07

 Cycle  21  Pass 1  IDiag  1:
 RMSU=  5.44D-09    CP:  7.66D-01  1.02D+00  1.69D+00  6.18D-01  1.02D+00
                    CP:  1.39D+00  1.67D+00  1.37D+00  1.33D+00  1.19D+00
                    CP:  1.34D+00  1.43D+00  1.54D+00  1.70D+00  1.86D+00
                    CP:  1.72D+00  1.75D+00  1.59D+00  1.26D+00
 E= -5179.00952870414     Delta-E=        0.000000000013 Rises=F Damp=F
 DIIS: error= 2.04D-08 at cycle  20 NSaved=  20.
 NSaved=20 IEnMin=18 EnMin= -5179.00952870420     IErMin=20 ErrMin= 2.04D-08
 ErrMax= 2.04D-08  0.00D+00 EMaxC= 1.00D-01 BMatC= 5.58D-13 BMatP= 3.95D-12
 IDIUse=1 WtCom= 1.00D+00 WtEn= 0.00D+00
 Coeff-Com: -0.303D-06-0.330D-06 0.206D-05 0.117D-05-0.164D-05-0.113D-04
 Coeff-Com: -0.179D-04 0.549D-04 0.993D-04 0.254D-05-0.875D-03-0.120D-02
 Coeff-Com: -0.118D-02 0.734D-02 0.177D-01-0.161D-01-0.653D-01-0.629D-01
 Coeff-Com:  0.198D+00 0.924D+00
 Coeff:     -0.303D-06-0.330D-06 0.206D-05 0.117D-05-0.164D-05-0.113D-04
 Coeff:     -0.179D-04 0.549D-04 0.993D-04 0.254D-05-0.875D-03-0.120D-02
 Coeff:     -0.118D-02 0.734D-02 0.177D-01-0.161D-01-0.653D-01-0.629D-01
 Coeff:      0.198D+00 0.924D+00
 Gap=     0.195 Goal=   None    Shift=    0.000
 Gap=     0.148 Goal=   None    Shift=    0.000
 RMSDP=1.01D-08 MaxDP=2.89D-06 DE= 1.27D-11 OVMax= 5.53D-07

 Cycle  22  Pass 1  IDiag  1:
 Restarting incremental Fock formation.
 E= -5179.00952870408     Delta-E=        0.000000000056 Rises=F Damp=F
 DIIS: error= 1.54D-08 at cycle  21 NSaved=  20.
 NSaved=20 IEnMin=17 EnMin= -5179.00952870420     IErMin=20 ErrMin= 1.54D-08
 ErrMax= 1.54D-08  0.00D+00 EMaxC= 1.00D-01 BMatC= 2.41D-13 BMatP= 5.58D-13
 IDIUse=1 WtCom= 1.00D+00 WtEn= 0.00D+00
 Coeff-Com: -0.445D-06 0.858D-06 0.613D-06 0.695D-06-0.677D-06-0.192D-04
 Coeff-Com: -0.277D-05 0.654D-04 0.152D-03 0.193D-03-0.190D-03-0.365D-02
 Coeff-Com: -0.258D-02 0.131D-01 0.106D-01-0.135D-01-0.811D-01-0.499D-01
 Coeff-Com:  0.423D+00 0.704D+00
 Coeff:     -0.445D-06 0.858D-06 0.613D-06 0.695D-06-0.677D-06-0.192D-04
 Coeff:     -0.277D-05 0.654D-04 0.152D-03 0.193D-03-0.190D-03-0.365D-02
 Coeff:     -0.258D-02 0.131D-01 0.106D-01-0.135D-01-0.811D-01-0.499D-01
 Coeff:      0.423D+00 0.704D+00
 Gap=     0.195 Goal=   None    Shift=    0.000
 Gap=     0.148 Goal=   None    Shift=    0.000
 RMSDP=1.98D-08 MaxDP=2.12D-06 DE= 5.64D-11 OVMax= 3.14D-07

 Cycle  23  Pass 1  IDiag  1:
 RMSU=  1.98D-08    CP:  1.00D+00
 E= -5179.00952870412     Delta-E=       -0.000000000038 Rises=F Damp=F
 DIIS: error= 1.18D-08 at cycle  22 NSaved=  20.
 NSaved=20 IEnMin=16 EnMin= -5179.00952870420     IErMin=20 ErrMin= 1.18D-08
 ErrMax= 1.18D-08  0.00D+00 EMaxC= 1.00D-01 BMatC= 7.57D-14 BMatP= 2.41D-13
 IDIUse=1 WtCom= 1.00D+00 WtEn= 0.00D+00
 Coeff-Com:  0.761D-07-0.884D-07-0.783D-06-0.144D-05 0.133D-05 0.114D-05
 Coeff-Com:  0.178D-05 0.206D-04 0.491D-04 0.121D-03 0.866D-04-0.980D-03
 Coeff-Com: -0.228D-02 0.351D-02 0.112D-01 0.264D-02-0.590D-01-0.182D+00
 Coeff-Com:  0.173D+00 0.105D+01
 Coeff:      0.761D-07-0.884D-07-0.783D-06-0.144D-05 0.133D-05 0.114D-05
 Coeff:      0.178D-05 0.206D-04 0.491D-04 0.121D-03 0.866D-04-0.980D-03
 Coeff:     -0.228D-02 0.351D-02 0.112D-01 0.264D-02-0.590D-01-0.182D+00
 Coeff:      0.173D+00 0.105D+01
 Gap=     0.195 Goal=   None    Shift=    0.000
 Gap=     0.148 Goal=   None    Shift=    0.000
 RMSDP=1.52D-08 MaxDP=1.63D-06 DE=-3.82D-11 OVMax= 3.75D-07

 Cycle  24  Pass 1  IDiag  1:
 RMSU=  1.33D-09    CP:  1.00D+00  1.76D+00
 E= -5179.00952870414     Delta-E=       -0.000000000016 Rises=F Damp=F
 DIIS: error= 8.09D-09 at cycle  23 NSaved=  20.
 NSaved=20 IEnMin=15 EnMin= -5179.00952870420     IErMin=20 ErrMin= 8.09D-09
 ErrMax= 8.09D-09  0.00D+00 EMaxC= 1.00D-01 BMatC= 3.35D-14 BMatP= 7.57D-14
 IDIUse=1 WtCom= 1.00D+00 WtEn= 0.00D+00
 Coeff-Com:  0.121D-06 0.333D-06 0.751D-06 0.279D-05-0.622D-05-0.176D-04
 Coeff-Com: -0.112D-04 0.435D-04 0.131D-03 0.783D-03-0.440D-03-0.488D-02
 Coeff-Com:  0.357D-03 0.120D-01 0.257D-01-0.161D-01-0.237D+00-0.203D+00
 Coeff-Com:  0.442D+00 0.980D+00
 Coeff:      0.121D-06 0.333D-06 0.751D-06 0.279D-05-0.622D-05-0.176D-04
 Coeff:     -0.112D-04 0.435D-04 0.131D-03 0.783D-03-0.440D-03-0.488D-02
 Coeff:      0.357D-03 0.120D-01 0.257D-01-0.161D-01-0.237D+00-0.203D+00
 Coeff:      0.442D+00 0.980D+00
 Gap=     0.195 Goal=   None    Shift=    0.000
 Gap=     0.148 Goal=   None    Shift=    0.000
 RMSDP=1.30D-09 MaxDP=8.17D-08 DE=-1.64D-11 OVMax= 3.32D-07

 SCF Done:  E(UM062X) =  -5179.00952870     A.U. after   24 cycles
            NFock= 24  Conv=0.13D-08     -V/T= 2.0028
 <Sx>= 0.0000 <Sy>= 0.0000 <Sz>= 0.5000 <S**2>= 0.7677 S= 0.5088
 <L.S>=  0.00000000000    
 KE= 5.164456273669D+03 PE=-2.649938659254D+04 EE= 9.018105024957D+03
 Annihilation of the first spin contaminant:
 S**2 before annihilation     0.7677,   after     0.7503
 Leave Link  502 at Fri Jun 13 17:43:44 2025, MaxMem=  7516192768 cpu:           35423.3 elap:            1479.1
 (Enter /share/apps/softwares/gaussian/16/g16/l601.exe)
 Copying SCF densities to generalized density rwf, IOpCl= 1 IROHF=0.

 **********************************************************************

            Population analysis using the SCF Density.

 **********************************************************************

 Orbital symmetries:
 Alpha Orbitals:
       Occupied  (A) (A) (A) (A) (A) (A) (A) (A) (A) (A) (A) (A)
                 (A) (A) (A) (A) (A) (A) (A) (A) (A) (A) (A) (A)
                 (A) (A) (A) (A) (A) (A) (A) (A) (A) (A) (A) (A)
                 (A) (A) (A) (A) (A) (A) (A) (A) (A) (A) (A) (A)
                 (A) (A) (A) (A) (A) (A) (A) (A) (A) (A) (A) (A)
                 (A) (A) (A) (A) (A) (A) (A) (A) (A) (A) (A) (A)
                 (A) (A) (A) (A) (A) (A) (A) (A) (A) (A) (A) (A)
                 (A) (A) (A) (A) (A) (A) (A) (A) (A) (A) (A) (A)
                 (A) (A) (A) (A) (A) (A) (A) (A) (A) (A) (A) (A)
                 (A) (A) (A) (A) (A) (A) (A) (A) (A) (A) (A) (A)
                 (A) (A) (A) (A) (A) (A) (A) (A) (A) (A) (A) (A)
                 (A) (A) (A) (A) (A) (A) (A) (A) (A) (A) (A) (A)
                 (A) (A) (A) (A) (A) (A) (A) (A) (A) (A) (A) (A)
                 (A) (A) (A) (A) (A) (A) (A) (A) (A) (A) (A) (A)
                 (A) (A) (A) (A) (A) (A) (A) (A) (A) (A) (A) (A)
                 (A) (A) (A) (A) (A) (A) (A) (A) (A) (A) (A) (A)
                 (A) (A) (A)
       Virtual   (A) (A) (A) (A) (A) (A) (A) (A) (A) (A) (A) (A)
                 (A) (A) (A) (A) (A) (A) (A) (A) (A) (A) (A) (A)
                 (A) (A) (A) (A) (A) (A) (A) (A) (A) (A) (A) (A)
                 (A) (A) (A) (A) (A) (A) (A) (A) (A) (A) (A) (A)
                 (A) (A) (A) (A) (A) (A) (A) (A) (A) (A) (A) (A)
                 (A) (A) (A) (A) (A) (A) (A) (A) (A) (A) (A) (A)
                 (A) (A) (A) (A) (A) (A) (A) (A) (A) (A) (A) (A)
                 (A) (A) (A) (A) (A) (A) (A) (A) (A) (A) (A) (A)
                 (A) (A) (A) (A) (A) (A) (A) (A) (A) (A) (A) (A)
                 (A) (A) (A) (A) (A) (A) (A) (A) (A) (A) (A) (A)
                 (A) (A) (A) (A) (A) (A) (A) (A) (A) (A) (A) (A)
                 (A) (A) (A) (A) (A) (A) (A) (A) (A) (A) (A) (A)
                 (A) (A) (A) (A) (A) (A) (A) (A) (A) (A) (A) (A)
                 (A) (A) (A) (A) (A) (A) (A) (A) (A) (A) (A) (A)
                 (A) (A) (A) (A) (A) (A) (A) (A) (A) (A) (A) (A)
                 (A) (A) (A) (A) (A) (A) (A) (A) (A) (A) (A) (A)
                 (A) (A) (A) (A) (A) (A) (A) (A) (A) (A) (A) (A)
                 (A) (A) (A) (A) (A) (A) (A) (A) (A) (A) (A) (A)
                 (A) (A) (A) (A) (A) (A) (A) (A) (A) (A) (A) (A)
                 (A) (A) (A) (A) (A) (A) (A) (A) (A) (A) (A) (A)
                 (A) (A) (A) (A) (A) (A) (A) (A) (A) (A) (A) (A)
                 (A) (A) (A) (A) (A) (A) (A) (A) (A) (A) (A) (A)
                 (A) (A) (A) (A) (A) (A) (A) (A) (A) (A) (A) (A)
                 (A) (A) (A) (A) (A) (A) (A) (A) (A) (A) (A) (A)
                 (A) (A) (A) (A) (A) (A) (A) (A) (A) (A) (A) (A)
                 (A) (A) (A) (A) (A) (A) (A) (A) (A) (A) (A) (A)
                 (A) (A) (A) (A) (A) (A) (A) (A) (A) (A) (A) (A)
                 (A) (A) (A) (A) (A) (A) (A) (A) (A) (A) (A) (A)
                 (A) (A) (A) (A) (A) (A) (A) (A) (A) (A) (A) (A)
                 (A) (A) (A) (A) (A) (A) (A) (A) (A) (A) (A) (A)
                 (A) (A) (A) (A) (A) (A) (A) (A) (A) (A) (A) (A)
                 (A) (A) (A) (A) (A) (A) (A) (A) (A) (A) (A) (A)
                 (A) (A) (A) (A) (A) (A) (A) (A) (A) (A) (A) (A)
                 (A) (A) (A) (A) (A) (A) (A) (A) (A) (A) (A) (A)
                 (A) (A) (A) (A) (A) (A) (A) (A) (A) (A) (A) (A)
                 (A) (A) (A) (A) (A) (A) (A) (A) (A) (A) (A) (A)
                 (A) (A) (A) (A) (A) (A) (A) (A) (A) (A) (A) (A)
                 (A) (A) (A) (A) (A) (A) (A) (A) (A) (A) (A) (A)
                 (A) (A) (A) (A) (A) (A) (A) (A) (A) (A) (A) (A)
                 (A) (A) (A) (A) (A) (A) (A) (A) (A) (A) (A) (A)
                 (A) (A) (A) (A) (A) (A) (A) (A) (A) (A) (A) (A)
                 (A) (A) (A) (A) (A) (A) (A) (A) (A) (A) (A) (A)
                 (A) (A) (A) (A) (A) (A) (A) (A) (A) (A) (A) (A)
                 (A) (A) (A) (A) (A) (A) (A) (A) (A) (A) (A) (A)
                 (A) (A) (A) (A) (A) (A) (A) (A) (A) (A) (A) (A)
                 (A) (A) (A) (A) (A) (A) (A) (A) (A) (A) (A) (A)
                 (A) (A) (A) (A) (A) (A) (A) (A) (A) (A) (A) (A)
                 (A) (A) (A) (A) (A) (A) (A) (A) (A) (A) (A) (A)
                 (A) (A) (A) (A) (A) (A) (A) (A) (A) (A) (A) (A)
                 (A) (A) (A) (A) (A) (A) (A) (A) (A) (A) (A) (A)
                 (A) (A) (A) (A) (A) (A) (A) (A) (A) (A) (A) (A)
                 (A) (A) (A) (A) (A) (A) (A) (A) (A) (A) (A) (A)
                 (A) (A) (A) (A) (A) (A) (A) (A) (A) (A) (A) (A)
                 (A) (A) (A) (A) (A) (A) (A) (A) (A) (A) (A) (A)
                 (A) (A) (A) (A) (A) (A) (A) (A) (A) (A) (A) (A)
                 (A) (A) (A) (A) (A) (A) (A) (A) (A) (A) (A) (A)
                 (A) (A) (A) (A) (A) (A) (A) (A) (A) (A) (A) (A)
                 (A) (A) (A) (A) (A) (A) (A) (A) (A) (A) (A) (A)
                 (A) (A) (A) (A) (A) (A) (A) (A) (A) (A) (A) (A)
                 (A) (A) (A) (A) (A) (A) (A) (A) (A) (A) (A) (A)
                 (A) (A) (A) (A) (A) (A) (A) (A) (A) (A) (A) (A)
                 (A) (A) (A) (A) (A) (A) (A) (A) (A) (A) (A) (A)
                 (A) (A) (A) (A) (A) (A) (A) (A) (A) (A) (A) (A)
                 (A) (A) (A) (A) (A) (A) (A) (A) (A) (A) (A) (A)
                 (A) (A) (A) (A) (A) (A) (A) (A) (A) (A) (A) (A)
                 (A) (A) (A) (A) (A) (A) (A) (A) (A) (A) (A) (A)
                 (A) (A) (A) (A) (A) (A) (A) (A) (A) (A) (A) (A)
                 (A) (A) (A) (A) (A) (A) (A) (A) (A) (A) (A) (A)
                 (A) (A) (A) (A) (A) (A) (A) (A) (A) (A) (A) (A)
                 (A) (A) (A) (A) (A) (A) (A) (A)
 Beta  Orbitals:
       Occupied  (A) (A) (A) (A) (A) (A) (A) (A) (A) (A) (A) (A)
                 (A) (A) (A) (A) (A) (A) (A) (A) (A) (A) (A) (A)
                 (A) (A) (A) (A) (A) (A) (A) (A) (A) (A) (A) (A)
                 (A) (A) (A) (A) (A) (A) (A) (A) (A) (A) (A) (A)
                 (A) (A) (A) (A) (A) (A) (A) (A) (A) (A) (A) (A)
                 (A) (A) (A) (A) (A) (A) (A) (A) (A) (A) (A) (A)
                 (A) (A) (A) (A) (A) (A) (A) (A) (A) (A) (A) (A)
                 (A) (A) (A) (A) (A) (A) (A) (A) (A) (A) (A) (A)
                 (A) (A) (A) (A) (A) (A) (A) (A) (A) (A) (A) (A)
                 (A) (A) (A) (A) (A) (A) (A) (A) (A) (A) (A) (A)
                 (A) (A) (A) (A) (A) (A) (A) (A) (A) (A) (A) (A)
                 (A) (A) (A) (A) (A) (A) (A) (A) (A) (A) (A) (A)
                 (A) (A) (A) (A) (A) (A) (A) (A) (A) (A) (A) (A)
                 (A) (A) (A) (A) (A) (A) (A) (A) (A) (A) (A) (A)
                 (A) (A) (A) (A) (A) (A) (A) (A) (A) (A) (A) (A)
                 (A) (A) (A) (A) (A) (A) (A) (A) (A) (A) (A) (A)
                 (A) (A)
       Virtual   (A) (A) (A) (A) (A) (A) (A) (A) (A) (A) (A) (A)
                 (A) (A) (A) (A) (A) (A) (A) (A) (A) (A) (A) (A)
                 (A) (A) (A) (A) (A) (A) (A) (A) (A) (A) (A) (A)
                 (A) (A) (A) (A) (A) (A) (A) (A) (A) (A) (A) (A)
                 (A) (A) (A) (A) (A) (A) (A) (A) (A) (A) (A) (A)
                 (A) (A) (A) (A) (A) (A) (A) (A) (A) (A) (A) (A)
                 (A) (A) (A) (A) (A) (A) (A) (A) (A) (A) (A) (A)
                 (A) (A) (A) (A) (A) (A) (A) (A) (A) (A) (A) (A)
                 (A) (A) (A) (A) (A) (A) (A) (A) (A) (A) (A) (A)
                 (A) (A) (A) (A) (A) (A) (A) (A) (A) (A) (A) (A)
                 (A) (A) (A) (A) (A) (A) (A) (A) (A) (A) (A) (A)
                 (A) (A) (A) (A) (A) (A) (A) (A) (A) (A) (A) (A)
                 (A) (A) (A) (A) (A) (A) (A) (A) (A) (A) (A) (A)
                 (A) (A) (A) (A) (A) (A) (A) (A) (A) (A) (A) (A)
                 (A) (A) (A) (A) (A) (A) (A) (A) (A) (A) (A) (A)
                 (A) (A) (A) (A) (A) (A) (A) (A) (A) (A) (A) (A)
                 (A) (A) (A) (A) (A) (A) (A) (A) (A) (A) (A) (A)
                 (A) (A) (A) (A) (A) (A) (A) (A) (A) (A) (A) (A)
                 (A) (A) (A) (A) (A) (A) (A) (A) (A) (A) (A) (A)
                 (A) (A) (A) (A) (A) (A) (A) (A) (A) (A) (A) (A)
                 (A) (A) (A) (A) (A) (A) (A) (A) (A) (A) (A) (A)
                 (A) (A) (A) (A) (A) (A) (A) (A) (A) (A) (A) (A)
                 (A) (A) (A) (A) (A) (A) (A) (A) (A) (A) (A) (A)
                 (A) (A) (A) (A) (A) (A) (A) (A) (A) (A) (A) (A)
                 (A) (A) (A) (A) (A) (A) (A) (A) (A) (A) (A) (A)
                 (A) (A) (A) (A) (A) (A) (A) (A) (A) (A) (A) (A)
                 (A) (A) (A) (A) (A) (A) (A) (A) (A) (A) (A) (A)
                 (A) (A) (A) (A) (A) (A) (A) (A) (A) (A) (A) (A)
                 (A) (A) (A) (A) (A) (A) (A) (A) (A) (A) (A) (A)
                 (A) (A) (A) (A) (A) (A) (A) (A) (A) (A) (A) (A)
                 (A) (A) (A) (A) (A) (A) (A) (A) (A) (A) (A) (A)
                 (A) (A) (A) (A) (A) (A) (A) (A) (A) (A) (A) (A)
                 (A) (A) (A) (A) (A) (A) (A) (A) (A) (A) (A) (A)
                 (A) (A) (A) (A) (A) (A) (A) (A) (A) (A) (A) (A)
                 (A) (A) (A) (A) (A) (A) (A) (A) (A) (A) (A) (A)
                 (A) (A) (A) (A) (A) (A) (A) (A) (A) (A) (A) (A)
                 (A) (A) (A) (A) (A) (A) (A) (A) (A) (A) (A) (A)
                 (A) (A) (A) (A) (A) (A) (A) (A) (A) (A) (A) (A)
                 (A) (A) (A) (A) (A) (A) (A) (A) (A) (A) (A) (A)
                 (A) (A) (A) (A) (A) (A) (A) (A) (A) (A) (A) (A)
                 (A) (A) (A) (A) (A) (A) (A) (A) (A) (A) (A) (A)
                 (A) (A) (A) (A) (A) (A) (A) (A) (A) (A) (A) (A)
                 (A) (A) (A) (A) (A) (A) (A) (A) (A) (A) (A) (A)
                 (A) (A) (A) (A) (A) (A) (A) (A) (A) (A) (A) (A)
                 (A) (A) (A) (A) (A) (A) (A) (A) (A) (A) (A) (A)
                 (A) (A) (A) (A) (A) (A) (A) (A) (A) (A) (A) (A)
                 (A) (A) (A) (A) (A) (A) (A) (A) (A) (A) (A) (A)
                 (A) (A) (A) (A) (A) (A) (A) (A) (A) (A) (A) (A)
                 (A) (A) (A) (A) (A) (A) (A) (A) (A) (A) (A) (A)
                 (A) (A) (A) (A) (A) (A) (A) (A) (A) (A) (A) (A)
                 (A) (A) (A) (A) (A) (A) (A) (A) (A) (A) (A) (A)
                 (A) (A) (A) (A) (A) (A) (A) (A) (A) (A) (A) (A)
                 (A) (A) (A) (A) (A) (A) (A) (A) (A) (A) (A) (A)
                 (A) (A) (A) (A) (A) (A) (A) (A) (A) (A) (A) (A)
                 (A) (A) (A) (A) (A) (A) (A) (A) (A) (A) (A) (A)
                 (A) (A) (A) (A) (A) (A) (A) (A) (A) (A) (A) (A)
                 (A) (A) (A) (A) (A) (A) (A) (A) (A) (A) (A) (A)
                 (A) (A) (A) (A) (A) (A) (A) (A) (A) (A) (A) (A)
                 (A) (A) (A) (A) (A) (A) (A) (A) (A) (A) (A) (A)
                 (A) (A) (A) (A) (A) (A) (A) (A) (A) (A) (A) (A)
                 (A) (A) (A) (A) (A) (A) (A) (A) (A) (A) (A) (A)
                 (A) (A) (A) (A) (A) (A) (A) (A) (A) (A) (A) (A)
                 (A) (A) (A) (A) (A) (A) (A) (A) (A) (A) (A) (A)
                 (A) (A) (A) (A) (A) (A) (A) (A) (A) (A) (A) (A)
                 (A) (A) (A) (A) (A) (A) (A) (A) (A) (A) (A) (A)
                 (A) (A) (A) (A) (A) (A) (A) (A) (A) (A) (A) (A)
                 (A) (A) (A) (A) (A) (A) (A) (A) (A) (A) (A) (A)
                 (A) (A) (A) (A) (A) (A) (A) (A) (A) (A) (A) (A)
                 (A) (A) (A) (A) (A) (A) (A) (A) (A) (A) (A) (A)
                 (A) (A) (A) (A) (A) (A) (A) (A) (A)
 The electronic state is 2-A.
 Alpha  occ. eigenvalues -- -102.69118-102.69117-102.68965-102.68965-102.68927
 Alpha  occ. eigenvalues -- -102.68927-102.68550-102.68550 -10.63889 -10.63889
 Alpha  occ. eigenvalues --  -10.63880 -10.63880 -10.63629 -10.63629 -10.63202
 Alpha  occ. eigenvalues --  -10.63202 -10.60948 -10.60052 -10.60049 -10.59636
 Alpha  occ. eigenvalues --  -10.58621 -10.58144 -10.58144 -10.58141 -10.58141
 Alpha  occ. eigenvalues --  -10.57394 -10.57167 -10.57164 -10.56872 -10.56693
 Alpha  occ. eigenvalues --  -10.56438 -10.56427 -10.56198 -10.56194 -10.56156
 Alpha  occ. eigenvalues --  -10.56154 -10.55897 -10.55893 -10.55324 -10.55212
 Alpha  occ. eigenvalues --  -10.55212 -10.55080 -10.55080 -10.55022 -10.55022
 Alpha  occ. eigenvalues --  -10.54925 -10.54925  -9.83352  -9.83351  -9.83193
 Alpha  occ. eigenvalues --   -9.83193  -9.83154  -9.83154  -9.82781  -9.82781
 Alpha  occ. eigenvalues --   -7.55679  -7.55679  -7.55519  -7.55519  -7.55481
 Alpha  occ. eigenvalues --   -7.55481  -7.55103  -7.55103  -7.55016  -7.55016
 Alpha  occ. eigenvalues --   -7.54985  -7.54985  -7.54851  -7.54851  -7.54820
 Alpha  occ. eigenvalues --   -7.54820  -7.54812  -7.54812  -7.54781  -7.54780
 Alpha  occ. eigenvalues --   -7.54444  -7.54444  -7.54413  -7.54413  -1.05342
 Alpha  occ. eigenvalues --   -1.03797  -1.02948  -1.00384  -0.99668  -0.99147
 Alpha  occ. eigenvalues --   -0.98987  -0.98921  -0.98438  -0.98375  -0.96251
 Alpha  occ. eigenvalues --   -0.94607  -0.93308  -0.92214  -0.91855  -0.91340
 Alpha  occ. eigenvalues --   -0.90320  -0.87522  -0.86331  -0.85591  -0.85560
 Alpha  occ. eigenvalues --   -0.85113  -0.85106  -0.84353  -0.84224  -0.84028
 Alpha  occ. eigenvalues --   -0.80398  -0.77964  -0.74406  -0.73146  -0.72056
 Alpha  occ. eigenvalues --   -0.71405  -0.71114  -0.70838  -0.70641  -0.69519
 Alpha  occ. eigenvalues --   -0.69031  -0.67970  -0.67761  -0.66315  -0.62725
 Alpha  occ. eigenvalues --   -0.62382  -0.62297  -0.60752  -0.60654  -0.60222
 Alpha  occ. eigenvalues --   -0.58836  -0.58381  -0.58285  -0.56244  -0.55162
 Alpha  occ. eigenvalues --   -0.55046  -0.54400  -0.54161  -0.53954  -0.53873
 Alpha  occ. eigenvalues --   -0.52749  -0.52670  -0.52564  -0.52342  -0.52206
 Alpha  occ. eigenvalues --   -0.52181  -0.51508  -0.51166  -0.50961  -0.50380
 Alpha  occ. eigenvalues --   -0.50167  -0.50008  -0.49711  -0.48167  -0.47976
 Alpha  occ. eigenvalues --   -0.47839  -0.47327  -0.46868  -0.46625  -0.46315
 Alpha  occ. eigenvalues --   -0.45622  -0.45607  -0.45511  -0.45074  -0.44815
 Alpha  occ. eigenvalues --   -0.44759  -0.44416  -0.43933  -0.43900  -0.43571
 Alpha  occ. eigenvalues --   -0.43423  -0.41812  -0.41320  -0.40480  -0.40347
 Alpha  occ. eigenvalues --   -0.40043  -0.39954  -0.39877  -0.39730  -0.39483
 Alpha  occ. eigenvalues --   -0.39429  -0.38577  -0.38500  -0.38487  -0.38306
 Alpha  occ. eigenvalues --   -0.37645  -0.37244  -0.36618  -0.35959  -0.33353
 Alpha  occ. eigenvalues --   -0.32831  -0.32115  -0.31938  -0.31763  -0.31682
 Alpha  occ. eigenvalues --   -0.31140  -0.29966  -0.29782  -0.25363  -0.24560
 Alpha virt. eigenvalues --   -0.05069  -0.03741  -0.02799  -0.02220  -0.01173
 Alpha virt. eigenvalues --   -0.00795  -0.00382   0.00686   0.00720   0.02219
 Alpha virt. eigenvalues --    0.02683   0.02876   0.04152   0.04454   0.05970
 Alpha virt. eigenvalues --    0.07254   0.07899   0.08124   0.08203   0.08225
 Alpha virt. eigenvalues --    0.08358   0.08407   0.08928   0.09008   0.09128
 Alpha virt. eigenvalues --    0.09339   0.10116   0.10214   0.10946   0.11406
 Alpha virt. eigenvalues --    0.11539   0.12030   0.12119   0.12202   0.12536
 Alpha virt. eigenvalues --    0.13169   0.13236   0.13345   0.13576   0.13706
 Alpha virt. eigenvalues --    0.14134   0.14625   0.14878   0.15694   0.15787
 Alpha virt. eigenvalues --    0.16513   0.16589   0.16720   0.16967   0.17116
 Alpha virt. eigenvalues --    0.17582   0.18127   0.18230   0.18550   0.18879
 Alpha virt. eigenvalues --    0.19391   0.19835   0.19878   0.20330   0.20772
 Alpha virt. eigenvalues --    0.21078   0.21093   0.21105   0.21386   0.21607
 Alpha virt. eigenvalues --    0.21960   0.22857   0.22944   0.23184   0.23806
 Alpha virt. eigenvalues --    0.24159   0.24177   0.24300   0.24600   0.24977
 Alpha virt. eigenvalues --    0.25187   0.25243   0.25530   0.25600   0.25647
 Alpha virt. eigenvalues --    0.25702   0.26370   0.26724   0.26755   0.27071
 Alpha virt. eigenvalues --    0.27539   0.27663   0.27966   0.28055   0.28158
 Alpha virt. eigenvalues --    0.28493   0.28554   0.28820   0.28838   0.29241
 Alpha virt. eigenvalues --    0.29281   0.29326   0.29617   0.29784   0.29904
 Alpha virt. eigenvalues --    0.30390   0.30623   0.31164   0.31185   0.31335
 Alpha virt. eigenvalues --    0.31986   0.32116   0.32213   0.32487   0.32680
 Alpha virt. eigenvalues --    0.32719   0.32931   0.33022   0.33246   0.33338
 Alpha virt. eigenvalues --    0.33460   0.34128   0.34341   0.34370   0.34541
 Alpha virt. eigenvalues --    0.34889   0.35064   0.35331   0.35705   0.35785
 Alpha virt. eigenvalues --    0.35937   0.36297   0.36326   0.36657   0.36953
 Alpha virt. eigenvalues --    0.37313   0.37512   0.37543   0.37884   0.38067
 Alpha virt. eigenvalues --    0.38090   0.38224   0.38281   0.38645   0.38659
 Alpha virt. eigenvalues --    0.38815   0.39085   0.39163   0.39315   0.39649
 Alpha virt. eigenvalues --    0.39972   0.40388   0.40435   0.40937   0.41114
 Alpha virt. eigenvalues --    0.41294   0.41440   0.41472   0.41495   0.42361
 Alpha virt. eigenvalues --    0.42842   0.43274   0.43285   0.43410   0.43694
 Alpha virt. eigenvalues --    0.43719   0.43908   0.44167   0.44362   0.44800
 Alpha virt. eigenvalues --    0.44816   0.45220   0.45271   0.45445   0.45607
 Alpha virt. eigenvalues --    0.45621   0.45779   0.45920   0.46014   0.46255
 Alpha virt. eigenvalues --    0.46436   0.46704   0.46956   0.46977   0.47251
 Alpha virt. eigenvalues --    0.47940   0.48147   0.48429   0.48586   0.49355
 Alpha virt. eigenvalues --    0.49733   0.49955   0.50228   0.50397   0.50740
 Alpha virt. eigenvalues --    0.51076   0.51083   0.51206   0.51429   0.51577
 Alpha virt. eigenvalues --    0.52180   0.52184   0.52509   0.52708   0.52878
 Alpha virt. eigenvalues --    0.53192   0.53330   0.54528   0.54952   0.55189
 Alpha virt. eigenvalues --    0.55504   0.55764   0.56295   0.56364   0.56738
 Alpha virt. eigenvalues --    0.56910   0.57241   0.58228   0.58291   0.58460
 Alpha virt. eigenvalues --    0.58937   0.59401   0.59492   0.59610   0.59738
 Alpha virt. eigenvalues --    0.59995   0.60522   0.60819   0.60884   0.61288
 Alpha virt. eigenvalues --    0.61625   0.61960   0.62408   0.63641   0.63727
 Alpha virt. eigenvalues --    0.63752   0.64762   0.65007   0.65486   0.65532
 Alpha virt. eigenvalues --    0.66720   0.66752   0.67158   0.67444   0.67554
 Alpha virt. eigenvalues --    0.68988   0.69516   0.69588   0.70083   0.70124
 Alpha virt. eigenvalues --    0.70375   0.70475   0.70886   0.71173   0.71306
 Alpha virt. eigenvalues --    0.71744   0.71912   0.72111   0.72120   0.72484
 Alpha virt. eigenvalues --    0.72619   0.73477   0.73833   0.74059   0.74356
 Alpha virt. eigenvalues --    0.74410   0.75043   0.75286   0.76055   0.76237
 Alpha virt. eigenvalues --    0.76306   0.76585   0.77698   0.78213   0.78482
 Alpha virt. eigenvalues --    0.79156   0.79811   0.80159   0.80627   0.81429
 Alpha virt. eigenvalues --    0.81483   0.81988   0.82505   0.82924   0.83327
 Alpha virt. eigenvalues --    0.83487   0.83748   0.83864   0.84258   0.84994
 Alpha virt. eigenvalues --    0.85631   0.86028   0.87244   0.87390   0.87620
 Alpha virt. eigenvalues --    0.87927   0.88041   0.88646   0.88804   0.89006
 Alpha virt. eigenvalues --    0.89179   0.89817   0.90149   0.91266   0.91724
 Alpha virt. eigenvalues --    0.92376   0.93049   0.93073   0.94728   0.94765
 Alpha virt. eigenvalues --    0.95062   0.95437   0.96529   0.97031   0.97272
 Alpha virt. eigenvalues --    0.98001   0.98701   0.98748   0.99323   0.99512
 Alpha virt. eigenvalues --    1.00204   1.01708   1.01870   1.02352   1.02738
 Alpha virt. eigenvalues --    1.03416   1.03937   1.04393   1.04605   1.05258
 Alpha virt. eigenvalues --    1.05576   1.06515   1.10777   1.11069   1.14245
 Alpha virt. eigenvalues --    1.14559   1.15815   1.17978   1.20196   1.21055
 Alpha virt. eigenvalues --    1.23477   1.23558   1.23922   1.24281   1.24898
 Alpha virt. eigenvalues --    1.25622   1.25728   1.26036   1.27450   1.27479
 Alpha virt. eigenvalues --    1.27810   1.28151   1.28644   1.28975   1.29393
 Alpha virt. eigenvalues --    1.29513   1.29869   1.30404   1.30535   1.30843
 Alpha virt. eigenvalues --    1.31045   1.31089   1.31732   1.31777   1.32015
 Alpha virt. eigenvalues --    1.32272   1.32567   1.32964   1.33039   1.33048
 Alpha virt. eigenvalues --    1.33544   1.33755   1.33982   1.34252   1.35477
 Alpha virt. eigenvalues --    1.35576   1.35696   1.35921   1.36097   1.36418
 Alpha virt. eigenvalues --    1.36609   1.36873   1.37376   1.37521   1.38441
 Alpha virt. eigenvalues --    1.38932   1.39019   1.39365   1.39990   1.40165
 Alpha virt. eigenvalues --    1.40341   1.40962   1.41652   1.42506   1.42767
 Alpha virt. eigenvalues --    1.44392   1.44937   1.45330   1.45398   1.45573
 Alpha virt. eigenvalues --    1.46151   1.46398   1.46470   1.46628   1.46930
 Alpha virt. eigenvalues --    1.47136   1.47270   1.47455   1.47829   1.48629
 Alpha virt. eigenvalues --    1.48903   1.49648   1.49751   1.49942   1.50254
 Alpha virt. eigenvalues --    1.50670   1.50756   1.50875   1.50893   1.50992
 Alpha virt. eigenvalues --    1.51351   1.51564   1.51647   1.51821   1.52486
 Alpha virt. eigenvalues --    1.52561   1.52634   1.52977   1.53267   1.53576
 Alpha virt. eigenvalues --    1.53986   1.54039   1.54421   1.54644   1.54719
 Alpha virt. eigenvalues --    1.54735   1.54965   1.55043   1.55302   1.55384
 Alpha virt. eigenvalues --    1.55436   1.55841   1.56117   1.56244   1.56596
 Alpha virt. eigenvalues --    1.56764   1.57291   1.57338   1.57586   1.57658
 Alpha virt. eigenvalues --    1.58423   1.58712   1.58776   1.59995   1.60012
 Alpha virt. eigenvalues --    1.60304   1.60469   1.61266   1.62087   1.62171
 Alpha virt. eigenvalues --    1.62588   1.62737   1.62931   1.63286   1.63445
 Alpha virt. eigenvalues --    1.64687   1.64877   1.65255   1.65264   1.65739
 Alpha virt. eigenvalues --    1.65797   1.65975   1.66211   1.67308   1.67597
 Alpha virt. eigenvalues --    1.67607   1.68189   1.68706   1.69075   1.69088
 Alpha virt. eigenvalues --    1.69344   1.70025   1.70177   1.70357   1.70505
 Alpha virt. eigenvalues --    1.70898   1.71222   1.72279   1.72405   1.72760
 Alpha virt. eigenvalues --    1.73302   1.73350   1.74776   1.74917   1.76199
 Alpha virt. eigenvalues --    1.76500   1.77012   1.77166   1.77404   1.77722
 Alpha virt. eigenvalues --    1.77865   1.79365   1.80451   1.80658   1.81145
 Alpha virt. eigenvalues --    1.81266   1.81673   1.81721   1.82302   1.82931
 Alpha virt. eigenvalues --    1.83125   1.83163   1.83869   1.84135   1.84449
 Alpha virt. eigenvalues --    1.84836   1.84847   1.85737   1.86149   1.87725
 Alpha virt. eigenvalues --    1.87852   1.88500   1.89449   1.89514   1.90191
 Alpha virt. eigenvalues --    1.90837   1.90991   1.91528   1.91798   1.91826
 Alpha virt. eigenvalues --    1.92190   1.92468   1.93096   1.93566   1.93676
 Alpha virt. eigenvalues --    1.93717   1.93871   1.94078   1.94290   1.95020
 Alpha virt. eigenvalues --    1.95244   1.95425   1.96351   1.96436   1.97405
 Alpha virt. eigenvalues --    1.97870   1.98080   1.98172   1.98602   1.98707
 Alpha virt. eigenvalues --    1.98962   1.99532   1.99622   2.00084   2.00536
 Alpha virt. eigenvalues --    2.00762   2.02174   2.03058   2.03284   2.04428
 Alpha virt. eigenvalues --    2.04599   2.04711   2.05133   2.05489   2.05900
 Alpha virt. eigenvalues --    2.06515   2.08320   2.09194   2.09892   2.11285
 Alpha virt. eigenvalues --    2.12341   2.12998   2.13749   2.13867   2.14143
 Alpha virt. eigenvalues --    2.15001   2.15407   2.15756   2.16573   2.16874
 Alpha virt. eigenvalues --    2.17276   2.17755   2.18289   2.20274   2.20787
 Alpha virt. eigenvalues --    2.22378   2.23322   2.23430   2.23689   2.24281
 Alpha virt. eigenvalues --    2.24871   2.25805   2.25929   2.27278   2.27539
 Alpha virt. eigenvalues --    2.27821   2.27914   2.28392   2.28949   2.28962
 Alpha virt. eigenvalues --    2.28968   2.29449   2.29617   2.29850   2.30422
 Alpha virt. eigenvalues --    2.30600   2.30659   2.30886   2.30974   2.31109
 Alpha virt. eigenvalues --    2.31224   2.31297   2.31419   2.31440   2.31922
 Alpha virt. eigenvalues --    2.32669   2.32713   2.33476   2.33773   2.33981
 Alpha virt. eigenvalues --    2.33998   2.34519   2.34951   2.34963   2.35227
 Alpha virt. eigenvalues --    2.35459   2.35942   2.35976   2.36312   2.36393
 Alpha virt. eigenvalues --    2.36594   2.37002   2.37319   2.38028   2.38639
 Alpha virt. eigenvalues --    2.39243   2.39487   2.39745   2.39927   2.40141
 Alpha virt. eigenvalues --    2.40392   2.40962   2.41266   2.42293   2.42393
 Alpha virt. eigenvalues --    2.43074   2.43256   2.43328   2.43932   2.44263
 Alpha virt. eigenvalues --    2.44873   2.45688   2.45903   2.46651   2.46898
 Alpha virt. eigenvalues --    2.49476   2.50358   2.51231   2.51310   2.52471
 Alpha virt. eigenvalues --    2.52776   2.52803   2.53017   2.53820   2.54191
 Alpha virt. eigenvalues --    2.54377   2.55342   2.55490   2.56328   2.56499
 Alpha virt. eigenvalues --    2.57216   2.57734   2.57930   2.58447   2.58701
 Alpha virt. eigenvalues --    2.59190   2.59782   2.59924   2.61165   2.61417
 Alpha virt. eigenvalues --    2.61884   2.62062   2.62506   2.62597   2.63121
 Alpha virt. eigenvalues --    2.63621   2.63999   2.64274   2.65688   2.66008
 Alpha virt. eigenvalues --    2.66525   2.67089   2.68468   2.69279   2.69457
 Alpha virt. eigenvalues --    2.70697   2.70840   2.71894   2.72023   2.72354
 Alpha virt. eigenvalues --    2.72610   2.75451   2.75810   2.76148   2.76320
 Alpha virt. eigenvalues --    2.76742   2.76939   2.77218   2.78396   2.78406
 Alpha virt. eigenvalues --    2.78891   2.79449   2.81206   2.81684   2.82204
 Alpha virt. eigenvalues --    2.82753   2.83563   2.83768   2.84418   2.86837
 Alpha virt. eigenvalues --    2.87834   2.88839   2.89435   2.93090   2.96091
 Alpha virt. eigenvalues --    2.96842   2.99580   3.01044   3.01271   3.02847
 Alpha virt. eigenvalues --    3.03602   3.04084   3.04382   3.06383   3.06833
 Alpha virt. eigenvalues --    3.07089   3.07139   3.09464   3.10046   3.10540
 Alpha virt. eigenvalues --    3.10983   3.11100   3.11510   3.12842   3.12928
 Alpha virt. eigenvalues --    3.13380   3.14434   3.14687   3.15258   3.16014
 Alpha virt. eigenvalues --    3.16328   3.17041   3.17118   3.17902   3.18291
 Alpha virt. eigenvalues --    3.18856   3.19182   3.19972   3.20168   3.21528
 Alpha virt. eigenvalues --    3.21570   3.21983   3.23517   3.23908   3.25689
 Alpha virt. eigenvalues --    3.26966   3.27486   3.27566   3.28818   3.29322
 Alpha virt. eigenvalues --    3.29753   3.31124   3.31584   3.33064   3.34191
 Alpha virt. eigenvalues --    3.34957   3.35691   3.38948   3.39680   3.42501
 Alpha virt. eigenvalues --    3.44710   3.44972   3.49114   3.50159   3.50189
 Alpha virt. eigenvalues --    3.51281   3.53251   3.54353   3.57545   3.59495
 Alpha virt. eigenvalues --    3.60578   3.74303   3.77818   3.81030  21.37139
 Alpha virt. eigenvalues --   21.41734  21.43626  21.52079  21.60258  21.66590
 Alpha virt. eigenvalues --   21.78585  21.87153  21.92638  21.94610  21.96408
 Alpha virt. eigenvalues --   21.98713  22.00477  22.01550  22.05046  22.06776
 Alpha virt. eigenvalues --   22.08628  22.12266  22.15019  22.18504  22.18523
 Alpha virt. eigenvalues --   22.19525  22.21446  22.21794  22.21849  22.25845
 Alpha virt. eigenvalues --   22.27213  22.28456  22.30252  22.30348  22.31463
 Alpha virt. eigenvalues --   22.32132  22.37272  22.39663  22.40810  22.42837
 Alpha virt. eigenvalues --   22.43789  22.44048  22.48310  25.30064  25.30187
 Alpha virt. eigenvalues --   25.53618  25.53970  25.62958  25.63506  25.65098
 Alpha virt. eigenvalues --   25.65696
  Beta  occ. eigenvalues -- -102.69109-102.69109-102.68968-102.68967-102.68930
  Beta  occ. eigenvalues -- -102.68930-102.68552-102.68552 -10.63810 -10.63810
  Beta  occ. eigenvalues --  -10.63801 -10.63801 -10.63576 -10.63576 -10.63120
  Beta  occ. eigenvalues --  -10.63120 -10.60414 -10.60148 -10.60142 -10.59736
  Beta  occ. eigenvalues --  -10.58571 -10.58168 -10.58168 -10.58165 -10.58165
  Beta  occ. eigenvalues --  -10.57404 -10.57193 -10.57190 -10.56866 -10.56694
  Beta  occ. eigenvalues --  -10.56437 -10.56427 -10.56190 -10.56186 -10.56156
  Beta  occ. eigenvalues --  -10.56154 -10.55900 -10.55896 -10.55323 -10.55212
  Beta  occ. eigenvalues --  -10.55212 -10.55080 -10.55080 -10.55022 -10.55022
  Beta  occ. eigenvalues --  -10.54925 -10.54925  -9.83348  -9.83348  -9.83194
  Beta  occ. eigenvalues --   -9.83194  -9.83155  -9.83155  -9.82782  -9.82782
  Beta  occ. eigenvalues --   -7.55686  -7.55686  -7.55532  -7.55532  -7.55494
  Beta  occ. eigenvalues --   -7.55493  -7.55117  -7.55117  -7.54985  -7.54985
  Beta  occ. eigenvalues --   -7.54982  -7.54982  -7.54843  -7.54843  -7.54823
  Beta  occ. eigenvalues --   -7.54823  -7.54805  -7.54805  -7.54784  -7.54784
  Beta  occ. eigenvalues --   -7.54435  -7.54435  -7.54416  -7.54416  -1.04983
  Beta  occ. eigenvalues --   -1.03680  -1.02804  -1.00371  -0.99476  -0.99057
  Beta  occ. eigenvalues --   -0.98910  -0.98827  -0.98358  -0.98342  -0.96251
  Beta  occ. eigenvalues --   -0.94458  -0.92655  -0.92175  -0.91649  -0.91228
  Beta  occ. eigenvalues --   -0.90284  -0.87417  -0.86318  -0.85580  -0.85478
  Beta  occ. eigenvalues --   -0.85085  -0.85073  -0.84295  -0.84222  -0.83997
  Beta  occ. eigenvalues --   -0.80324  -0.77233  -0.74287  -0.73014  -0.71949
  Beta  occ. eigenvalues --   -0.71202  -0.70924  -0.70770  -0.70437  -0.69399
  Beta  occ. eigenvalues --   -0.68861  -0.67967  -0.67462  -0.66257  -0.62693
  Beta  occ. eigenvalues --   -0.62156  -0.62147  -0.60743  -0.60521  -0.59567
  Beta  occ. eigenvalues --   -0.58757  -0.58215  -0.58154  -0.56005  -0.55013
  Beta  occ. eigenvalues --   -0.54987  -0.54386  -0.54081  -0.53953  -0.53789
  Beta  occ. eigenvalues --   -0.52619  -0.52474  -0.52337  -0.52316  -0.52135
  Beta  occ. eigenvalues --   -0.52107  -0.51436  -0.51025  -0.50680  -0.50319
  Beta  occ. eigenvalues --   -0.50138  -0.49877  -0.49456  -0.48060  -0.47970
  Beta  occ. eigenvalues --   -0.47832  -0.47161  -0.46600  -0.46276  -0.46193
  Beta  occ. eigenvalues --   -0.45507  -0.45446  -0.45289  -0.44824  -0.44751
  Beta  occ. eigenvalues --   -0.44631  -0.44270  -0.43895  -0.43734  -0.43403
  Beta  occ. eigenvalues --   -0.43345  -0.41756  -0.41311  -0.40360  -0.40202
  Beta  occ. eigenvalues --   -0.39981  -0.39947  -0.39831  -0.39645  -0.39474
  Beta  occ. eigenvalues --   -0.39241  -0.38569  -0.38516  -0.38499  -0.38143
  Beta  occ. eigenvalues --   -0.37506  -0.37241  -0.36603  -0.34300  -0.32802
[...]

              Baa    -0.0092    -1.233    -0.440    -0.411  0.0000  0.4221  0.9065
     1 C(13)  Bbb     0.0036     0.484     0.173     0.161 -0.0000  0.9065 -0.4221
              Bcc     0.0056     0.750     0.268     0.250  1.0000  0.0000 -0.0000
 
              Baa    -0.0063    -0.844    -0.301    -0.282 -0.3189  0.8817 -0.3476
     2 C(13)  Bbb    -0.0043    -0.578    -0.206    -0.193  0.9162  0.3807  0.1251
              Bcc     0.0106     1.423     0.508     0.475 -0.2427  0.2786  0.9292
 
              Baa    -0.0047    -0.627    -0.224    -0.209  0.0094  0.4393  0.8983
     3 C(13)  Bbb     0.0016     0.216     0.077     0.072 -0.0599  0.8970 -0.4381
              Bcc     0.0031     0.410     0.146     0.137  0.9982  0.0497 -0.0347
 
              Baa    -0.0063    -0.848    -0.302    -0.283 -0.0000  0.8998 -0.4364
     4 C(13)  Bbb    -0.0052    -0.704    -0.251    -0.235  1.0000 -0.0000 -0.0000
              Bcc     0.0116     1.551     0.554     0.517  0.0000  0.4364  0.8998
 
              Baa    -0.0047    -0.627    -0.224    -0.209 -0.0093  0.4393  0.8983
     5 C(13)  Bbb     0.0016     0.216     0.077     0.072  0.0599  0.8970 -0.4381
              Bcc     0.0031     0.410     0.146     0.137  0.9982 -0.0497  0.0347
 
              Baa    -0.0063    -0.844    -0.301    -0.282  0.3189  0.8817 -0.3477
     6 C(13)  Bbb    -0.0043    -0.578    -0.206    -0.193  0.9162 -0.3807 -0.1252
              Bcc     0.0106     1.423     0.508     0.475  0.2427  0.2786  0.9292
 
              Baa    -0.0434    -5.828    -2.079    -1.944  0.0000 -0.5366  0.8438
     7 C(13)  Bbb    -0.0383    -5.133    -1.832    -1.712  1.0000 -0.0000 -0.0000
              Bcc     0.0817    10.961     3.911     3.656  0.0000  0.8438  0.5366
 
              Baa    -0.0346    -4.636    -1.654    -1.547 -0.0144  0.8835  0.4682
     8 C(13)  Bbb     0.0135     1.805     0.644     0.602  0.0951 -0.4649  0.8802
              Bcc     0.0211     2.831     1.010     0.944  0.9954  0.0572 -0.0773
 
              Baa    -0.0489    -6.568    -2.344    -2.191  0.3973 -0.3193  0.8603
     9 C(13)  Bbb    -0.0368    -4.944    -1.764    -1.649  0.8792 -0.1361 -0.4566
              Bcc     0.0858    11.512     4.108     3.840  0.2629  0.9378  0.2266
 
              Baa    -0.0727    -9.762    -3.483    -3.256 -0.0000  0.8504  0.5261
    10 C(13)  Bbb     0.0321     4.307     1.537     1.437  0.0001 -0.5261  0.8504
              Bcc     0.0406     5.455     1.946     1.819  1.0000  0.0001 -0.0000
 
              Baa    -0.0489    -6.568    -2.344    -2.191 -0.3973 -0.3193  0.8603
    11 C(13)  Bbb    -0.0368    -4.944    -1.764    -1.649  0.8792  0.1361  0.4566
              Bcc     0.0858    11.512     4.108     3.840 -0.2629  0.9378  0.2267
 
              Baa    -0.0346    -4.636    -1.654    -1.547  0.0144  0.8835  0.4682
    12 C(13)  Bbb     0.0135     1.805     0.644     0.602 -0.0951 -0.4649  0.8802
              Bcc     0.0211     2.831     1.010     0.944  0.9954 -0.0572  0.0773
 
              Baa    -0.0010    -0.525    -0.187    -0.175 -0.0666  0.6143  0.7863
    13 H(1)   Bbb     0.0003     0.136     0.049     0.045  0.8293 -0.4042  0.3860
              Bcc     0.0007     0.389     0.139     0.130  0.5549  0.6777 -0.4825
 
              Baa    -0.0004    -0.210    -0.075    -0.070  0.0209  0.3863  0.9221
    14 H(1)   Bbb    -0.0002    -0.103    -0.037    -0.034 -0.0301  0.9222 -0.3856
              Bcc     0.0006     0.313     0.112     0.104  0.9993  0.0197 -0.0309
 
              Baa    -0.0004    -0.210    -0.075    -0.070 -0.0209  0.3863  0.9221
    15 H(1)   Bbb    -0.0002    -0.103    -0.037    -0.034  0.0301  0.9222 -0.3856
              Bcc     0.0006     0.313     0.112     0.104  0.9993 -0.0196  0.0309
 
              Baa    -0.0010    -0.525    -0.187    -0.175  0.0666  0.6143  0.7863
    16 H(1)   Bbb     0.0003     0.136     0.049     0.045  0.8292  0.4042 -0.3860
              Bcc     0.0007     0.389     0.139     0.130 -0.5550  0.6777 -0.4825
 
              Baa    -0.0020    -1.052    -0.376    -0.351 -0.0457  0.8989  0.4358
    17 H(1)   Bbb    -0.0008    -0.405    -0.144    -0.135 -0.0752 -0.4381  0.8958
              Bcc     0.0027     1.457     0.520     0.486  0.9961  0.0081  0.0876
 
              Baa    -0.0020    -1.052    -0.376    -0.351  0.0457  0.8989  0.4357
    18 H(1)   Bbb    -0.0008    -0.405    -0.144    -0.135  0.0753 -0.4380  0.8958
              Bcc     0.0027     1.457     0.520     0.486  0.9961 -0.0081 -0.0877
 
              Baa    -0.4419   -59.301   -21.160   -19.781  1.0000  0.0034 -0.0008
    19 C(13)  Bbb    -0.4414   -59.233   -21.136   -19.758 -0.0035  0.9717 -0.2362
              Bcc     0.8833   118.535    42.296    39.539 -0.0000  0.2362  0.9717
 
              Baa    -0.0660    -8.850    -3.158    -2.952 -0.6195 -0.1815  0.7637
    20 C(13)  Bbb     0.0289     3.884     1.386     1.295  0.6060  0.5079  0.6122
              Bcc     0.0370     4.966     1.772     1.657 -0.4990  0.8421 -0.2046
 
              Baa    -0.0465    -6.245    -2.228    -2.083  0.2316  0.7561  0.6121
    21 C(13)  Bbb    -0.0343    -4.596    -1.640    -1.533  0.3972 -0.6479  0.6499
              Bcc     0.0808    10.841     3.868     3.616  0.8880  0.0926 -0.4504
 
              Baa    -0.0465    -6.239    -2.226    -2.081  0.6298  0.0825  0.7723
    22 C(13)  Bbb    -0.0343    -4.598    -1.641    -1.534 -0.4790  0.8240  0.3026
              Bcc     0.0808    10.837     3.867     3.615  0.6115  0.5605 -0.5585
 
              Baa    -0.0319    -4.283    -1.528    -1.429 -0.6369 -0.2224  0.7382
    23 C(13)  Bbb     0.0122     1.642     0.586     0.548  0.5135  0.5919  0.6213
              Bcc     0.0197     2.641     0.942     0.881 -0.5751  0.7747 -0.2628
 
              Baa    -0.0319    -4.286    -1.529    -1.430 -0.6535 -0.1947  0.7314
    24 C(13)  Bbb     0.0122     1.637     0.584     0.546  0.6280  0.3999  0.6676
              Bcc     0.0197     2.649     0.945     0.884 -0.4225  0.8956 -0.1391
 
              Baa    -0.0424    -5.690    -2.030    -1.898  0.6095  0.5094  0.6074
    25 C(13)  Bbb    -0.0355    -4.763    -1.700    -1.589 -0.5016  0.8412 -0.2021
              Bcc     0.0779    10.454     3.730     3.487 -0.6139 -0.1815  0.7682
 
              Baa    -0.0019    -1.032    -0.368    -0.344 -0.6577 -0.2678  0.7041
    26 H(1)   Bbb    -0.0005    -0.276    -0.098    -0.092  0.5548  0.4601  0.6932
              Bcc     0.0025     1.308     0.467     0.436 -0.5096  0.8465 -0.1540
 
              Baa    -0.0660    -8.853    -3.159    -2.953  0.6193 -0.1815  0.7639
    27 C(13)  Bbb     0.0290     3.885     1.386     1.296 -0.6062  0.5078  0.6121
              Bcc     0.0370     4.968     1.773     1.657  0.4990  0.8422 -0.2045
 
              Baa    -0.0465    -6.241    -2.227    -2.082 -0.6300  0.0826  0.7722
    28 C(13)  Bbb    -0.0343    -4.600    -1.641    -1.534  0.4788  0.8242  0.3025
              Bcc     0.0808    10.841     3.868     3.616  0.6114 -0.5603  0.5588
 
              Baa    -0.0466    -6.247    -2.229    -2.084 -0.2318  0.7561  0.6120
    29 C(13)  Bbb    -0.0343    -4.598    -1.641    -1.534 -0.3974 -0.6479  0.6498
              Bcc     0.0808    10.845     3.870     3.618  0.8879 -0.0926  0.4507
 
              Baa    -0.0319    -4.287    -1.530    -1.430  0.6534 -0.1946  0.7316
    30 C(13)  Bbb     0.0122     1.638     0.584     0.546 -0.6282  0.4000  0.6674
              Bcc     0.0197     2.650     0.945     0.884  0.4225  0.8956 -0.1391
 
              Baa    -0.0319    -4.284    -1.529    -1.429  0.6367 -0.2223  0.7384
    31 C(13)  Bbb     0.0122     1.643     0.586     0.548 -0.5137  0.5919  0.6212
              Bcc     0.0197     2.642     0.943     0.881  0.5751  0.7748 -0.2627
 
              Baa    -0.0424    -5.693    -2.031    -1.899  0.6097 -0.5094 -0.6073
    32 C(13)  Bbb    -0.0355    -4.766    -1.700    -1.590  0.5016  0.8412 -0.2021
              Bcc     0.0779    10.458     3.732     3.489  0.6137 -0.1814  0.7684
 
              Baa    -0.0019    -1.032    -0.368    -0.344  0.6946 -0.2042  0.6898
    33 H(1)   Bbb    -0.0005    -0.276    -0.099    -0.092 -0.5249  0.5119  0.6801
              Bcc     0.0025     1.308     0.467     0.436  0.4920  0.8344 -0.2483
 
              Baa    -0.0019    -1.032    -0.368    -0.344  0.6575 -0.2677  0.7043
    34 H(1)   Bbb    -0.0005    -0.276    -0.098    -0.092 -0.5551  0.4600  0.6930
              Bcc     0.0025     1.308     0.467     0.436  0.5095  0.8466 -0.1539
 
              Baa    -0.0548    -2.870    -1.024    -0.957 -0.5013  0.8414 -0.2018
    35 Cl(35) Bbb    -0.0253    -1.322    -0.472    -0.441  0.5313  0.4835  0.6957
              Bcc     0.0801     4.192     1.496     1.398 -0.6829 -0.2415  0.6894
 
              Baa    -0.0371    -1.943    -0.693    -0.648 -0.0503  0.8716  0.4876
    36 Cl(35) Bbb    -0.0096    -0.500    -0.178    -0.167  0.9569 -0.0977  0.2734
              Bcc     0.0467     2.443     0.872     0.815 -0.2859 -0.4803  0.8292
 
              Baa    -0.0549    -2.871    -1.024    -0.958  0.5013  0.8414 -0.2018
    37 Cl(35) Bbb    -0.0253    -1.323    -0.472    -0.441 -0.5315  0.4835  0.6955
              Bcc     0.0801     4.194     1.497     1.399  0.6828 -0.2414  0.6896
 
              Baa    -0.0363    -1.899    -0.678    -0.633 -0.6125 -0.2651  0.7447
    38 Cl(35) Bbb    -0.0092    -0.482    -0.172    -0.161 -0.3399  0.9389  0.0547
              Bcc     0.0455     2.380     0.849     0.794  0.7137  0.2196  0.6652
 
              Baa    -0.0371    -1.943    -0.693    -0.648  0.0500  0.8717  0.4875
    39 Cl(35) Bbb    -0.0096    -0.500    -0.179    -0.167  0.9569  0.0980 -0.2733
              Bcc     0.0467     2.444     0.872     0.815  0.2860 -0.4801  0.8292
 
              Baa    -0.0392    -2.051    -0.732    -0.684 -0.6452 -0.1822  0.7420
    40 Cl(35) Bbb    -0.0106    -0.553    -0.197    -0.185 -0.6465  0.6477 -0.4031
              Bcc     0.0498     2.604     0.929     0.869  0.4071  0.7398  0.5357
 
              Baa    -0.0392    -2.051    -0.732    -0.684  0.6452 -0.1822  0.7420
    41 Cl(35) Bbb    -0.0106    -0.553    -0.197    -0.185  0.6465  0.6477 -0.4031
              Bcc     0.0498     2.604     0.929     0.869 -0.4071  0.7398  0.5357
 
              Baa    -0.0005    -0.065    -0.023    -0.022  0.2769  0.3259  0.9040
    42 C(13)  Bbb    -0.0002    -0.023    -0.008    -0.008  0.6890  0.5884 -0.4232
              Bcc     0.0007     0.088     0.032     0.029 -0.6698  0.7400 -0.0616
 
              Baa    -0.0005    -0.065    -0.023    -0.022 -0.2769  0.3259  0.9040
    43 C(13)  Bbb    -0.0002    -0.023    -0.008    -0.008  0.6890 -0.5884  0.4232
              Bcc     0.0007     0.088     0.032     0.029  0.6698  0.7400 -0.0616
 
              Baa    -0.0004    -0.053    -0.019    -0.018 -0.0167 -0.6954  0.7185
    44 C(13)  Bbb    -0.0001    -0.011    -0.004    -0.004  0.3708  0.6630  0.6503
              Bcc     0.0005     0.064     0.023     0.021  0.9286 -0.2772 -0.2468
 
              Baa    -0.0003    -0.041    -0.014    -0.014 -0.0228 -0.6913  0.7222
    45 C(13)  Bbb    -0.0000    -0.003    -0.001    -0.001  0.1334  0.7138  0.6875
              Bcc     0.0003     0.044     0.016     0.015  0.9908 -0.1120 -0.0759
 
              Baa    -0.0003    -0.041    -0.014    -0.014  0.0228 -0.6913  0.7222
    46 C(13)  Bbb    -0.0000    -0.003    -0.001    -0.001 -0.1334  0.7138  0.6875
              Bcc     0.0003     0.044     0.016     0.015  0.9908  0.1120  0.0759
 
              Baa    -0.0004    -0.053    -0.019    -0.018  0.0167 -0.6954  0.7185
    47 C(13)  Bbb    -0.0001    -0.011    -0.004    -0.004 -0.3708  0.6630  0.6503
              Bcc     0.0005     0.064     0.023     0.021  0.9286  0.2772  0.2468
 
              Baa    -0.0002    -0.026    -0.009    -0.009  0.4226  0.6102  0.6701
    48 C(13)  Bbb     0.0001     0.009     0.003     0.003 -0.2943 -0.6069  0.7383
              Bcc     0.0001     0.018     0.006     0.006  0.8572 -0.5092 -0.0769
 
              Baa    -0.0003    -0.174    -0.062    -0.058  0.0283 -0.6292  0.7767
    49 H(1)   Bbb    -0.0001    -0.059    -0.021    -0.020  0.5104  0.6772  0.5300
              Bcc     0.0004     0.234     0.083     0.078  0.8595 -0.3814 -0.3403
 
              Baa    -0.0002    -0.020    -0.007    -0.007  0.2705  0.6132  0.7422
    50 C(13)  Bbb     0.0000     0.006     0.002     0.002 -0.5701 -0.5193  0.6367
              Bcc     0.0001     0.014     0.005     0.005  0.7758 -0.5953  0.2091
 
              Baa    -0.0002    -0.020    -0.007    -0.007 -0.2705  0.6132  0.7422
    51 C(13)  Bbb     0.0000     0.006     0.002     0.002  0.5701 -0.5192  0.6367
              Bcc     0.0001     0.014     0.005     0.005  0.7758  0.5953 -0.2091
 
              Baa    -0.0003    -0.174    -0.062    -0.058 -0.0283 -0.6292  0.7767
    52 H(1)   Bbb    -0.0001    -0.059    -0.021    -0.020 -0.5104  0.6772  0.5300
              Bcc     0.0004     0.234     0.083     0.078  0.8595  0.3814  0.3403
 
              Baa    -0.0002    -0.026    -0.009    -0.009 -0.4226  0.6102  0.6701
    53 C(13)  Bbb     0.0001     0.009     0.003     0.003  0.2944 -0.6069  0.7383
              Bcc     0.0001     0.018     0.006     0.006  0.8572  0.5093  0.0768
 
              Baa    -0.0002    -0.032    -0.011    -0.011 -0.0030 -0.6945  0.7195
    54 C(13)  Bbb    -0.0000    -0.000    -0.000    -0.000  0.3351  0.6772  0.6551
              Bcc     0.0002     0.032     0.011     0.011  0.9422 -0.2431 -0.2307
 
              Baa    -0.0001    -0.065    -0.023    -0.022  0.0484 -0.6465  0.7614
    55 H(1)   Bbb    -0.0001    -0.046    -0.016    -0.015  0.4861  0.6812  0.5475
              Bcc     0.0002     0.111     0.040     0.037  0.8726 -0.3435 -0.3472
 
              Baa    -0.0001    -0.035    -0.013    -0.012  0.1526  0.0816  0.9849
    56 H(1)   Bbb    -0.0001    -0.034    -0.012    -0.011  0.1334  0.9858 -0.1024
              Bcc     0.0001     0.069     0.025     0.023  0.9792 -0.1470 -0.1396
 
              Baa    -0.0002    -0.032    -0.011    -0.011  0.0030 -0.6945  0.7195
    57 C(13)  Bbb    -0.0000    -0.000    -0.000    -0.000 -0.3351  0.6772  0.6551
              Bcc     0.0002     0.032     0.011     0.011  0.9422  0.2431  0.2307
 
              Baa    -0.0001    -0.035    -0.013    -0.012 -0.1526  0.0817  0.9849
    58 H(1)   Bbb    -0.0001    -0.034    -0.012    -0.011 -0.1334  0.9858 -0.1024
              Bcc     0.0001     0.069     0.025     0.023  0.9792  0.1470  0.1396
 
              Baa    -0.0001    -0.065    -0.023    -0.022 -0.0484 -0.6465  0.7614
    59 H(1)   Bbb    -0.0001    -0.046    -0.016    -0.015 -0.4861  0.6812  0.5475
              Bcc     0.0002     0.111     0.040     0.037  0.8726  0.3436  0.3472
 
              Baa    -0.0001    -0.037    -0.013    -0.012  0.0020 -0.6932  0.7208
    60 H(1)   Bbb    -0.0001    -0.031    -0.011    -0.010  0.3457  0.6768  0.6499
              Bcc     0.0001     0.068     0.024     0.023  0.9383 -0.2479 -0.2410
 
              Baa    -0.0001    -0.037    -0.013    -0.012 -0.0020 -0.6932  0.7208
    61 H(1)   Bbb    -0.0001    -0.031    -0.011    -0.010 -0.3457  0.6768  0.6499
              Bcc     0.0001     0.068     0.024     0.023  0.9383  0.2479  0.2410
 
              Baa    -0.0008    -0.110    -0.039    -0.037  0.0000 -0.7038  0.7104
    62 C(13)  Bbb     0.0002     0.026     0.009     0.009  0.0000  0.7104  0.7038
              Bcc     0.0006     0.084     0.030     0.028  1.0000  0.0000 -0.0000
 
              Baa    -0.0004    -0.058    -0.021    -0.019  0.0000  0.7568  0.6536
    63 C(13)  Bbb    -0.0002    -0.020    -0.007    -0.007  1.0000 -0.0000 -0.0000
              Bcc     0.0006     0.078     0.028     0.026 -0.0000 -0.6536  0.7568
 
              Baa    -0.0001    -0.058    -0.021    -0.019  0.0000  0.7267  0.6870
    64 H(1)   Bbb    -0.0001    -0.038    -0.013    -0.013  0.0000 -0.6870  0.7267
              Bcc     0.0002     0.096     0.034     0.032  1.0000 -0.0000 -0.0000
 
              Baa    -0.0363    -1.898    -0.677    -0.633  0.6123 -0.2651  0.7449
    65 Cl(35) Bbb    -0.0092    -0.481    -0.172    -0.161  0.3401  0.9388  0.0546
              Bcc     0.0455     2.379     0.849     0.794  0.7138 -0.2199 -0.6650
 
              Baa    -0.0019    -1.032    -0.368    -0.344  0.6947  0.2043 -0.6896
    66 H(1)   Bbb    -0.0005    -0.276    -0.099    -0.092  0.5248  0.5116  0.6803
              Bcc     0.0025     1.308     0.467     0.436 -0.4918  0.8346 -0.2482
 

 ---------------------------------------------------------------------------------

 No NMR shielding tensors so no spin-rotation constants.
 Leave Link  601 at Fri Jun 13 18:19:55 2025, MaxMem=  7516192768 cpu:              49.8 elap:               2.4
 (Enter /share/apps/softwares/gaussian/16/g16/l9999.exe)
 Unable to Open any file for archive entry.
 1\1\GINC-CN99105\Stability\UM062X\TZVP\C39H19Cl8(2)\KAE\13-Jun-2025\0\
 \#p stable=opt UM062X/TZVP em=gd3\\molecule\\0,2\C,0,-2.560382,0.00005
 ,0.00004\C,0,-3.281146,1.084511,-0.524456\C,0,-4.671914,1.083479,-0.52
 3672\C,0,-5.390973,0.000027,0.000014\C,0,-4.671906,-1.083413,0.523714\
 C,0,-3.281138,-1.084422,0.524523\C,0,-1.082983,0.000057,0.000048\C,0,-
 0.361588,0.589841,-1.04643\C,0,1.024515,0.585781,-1.039386\C,0,1.78855
 5,0.000045,0.000045\C,0,1.024507,-0.585676,1.039481\C,0,-0.361593,-0.5
 89727,1.04653\H,0,-2.74723,1.946068,-0.912298\H,0,-5.214836,1.932467,-
 0.926452\H,0,-5.214822,-1.93241,0.926484\H,0,-2.747216,-1.945972,0.912
 374\H,0,-0.880667,1.013098,-1.897041\H,0,-0.880674,-1.012988,1.897137\
 C,0,3.250407,-0.000016,0.000026\C,0,3.985089,1.232764,-0.298243\C,0,5.
 05403,1.274749,-1.225311\C,0,3.676649,2.46709,0.323072\C,0,5.761746,2.
 435113,-1.51438\C,0,4.362615,3.644424,0.050801\C,0,5.404907,3.614929,-
 0.869861\H,0,6.56047,2.419872,-2.243877\C,0,3.985085,-1.232793,0.29823
 \C,0,3.676467,-2.467169,-0.32289\C,0,5.054217,-1.274738,1.225096\C,0,4
 .36245,-3.644501,-0.050653\C,0,5.761959,-2.435096,1.514112\C,0,5.40494
 9,-3.614962,0.869777\H,0,4.100133,-4.560022,-0.563842\H,0,6.560834,-2.
 419815,2.243443\Cl,0,6.281629,5.086318,-1.222932\Cl,0,5.489391,-0.1461
 99,-2.152675\Cl,0,6.281702,-5.086343,1.222796\Cl,0,2.447992,-2.559849,
 -1.568092\Cl,0,5.489809,0.146257,2.152286\Cl,0,1.812445,-1.248324,2.46
 114\Cl,0,1.812439,1.248365,-2.461083\C,0,-7.581984,-0.876564,-0.85765\
 C,0,-7.582022,0.876574,0.857629\C,0,-6.91876,-1.76098,-1.766425\C,0,-9
 .026078,-0.87657,-0.847875\C,0,-9.026115,0.876549,0.847822\C,0,-6.9188
 37,1.761005,1.766418\C,0,-7.628116,-2.599867,-2.584258\H,0,-5.836071,-
 1.754612,-1.804272\C,0,-9.726476,-1.770145,-1.7151\C,0,-9.726552,1.770
 108,1.715031\H,0,-5.836148,1.75466,1.804289\C,0,-7.628229,2.599876,2.5
 84236\C,0,-9.05136,-2.611354,-2.556581\H,0,-7.102333,-3.260816,-3.2664
 11\H,0,-10.812589,-1.762559,-1.691771\C,0,-9.051473,2.611331,2.556528\
 H,0,-10.812664,1.762499,1.691678\H,0,-7.102475,3.260836,3.2664\H,0,-9.
 595644,-3.284973,-3.211054\H,0,-9.595786,3.284939,3.210989\C,0,-6.8802
 16,0.000012,-0.000003\C,0,-9.707346,-0.000018,-0.000034\H,0,-10.794401
 ,-0.00003,-0.000046\Cl,0,2.448472,2.55966,1.568579\H,0,4.100448,4.5599
 09,0.564138\\Version=ES64L-G16RevC.01\State=2-A\HF=-5179.0095287\S2=0.
 767736\S2-1=0.\S2A=0.75028\RMSD=1.297e-09\Dipole=-1.0593803,-0.0000291
 ,-0.0000019\Quadrupole=9.8829789,-2.403887,-7.4790919,-0.0001564,-0.00
 00085,5.2381297\PG=C01 [X(C39H19Cl8)]\\@
 The archive entry for this job was punched.


 LENDING MONEY TO FRIENDS CAUSES THEM TO LOSE THEIR MEMORIES.

    --  PETER'S THEORY OF RECIPROCAL INHIBITION OF FISCAL RECALL
 Job cpu time:       1 days  0 hours 19 minutes 55.8 seconds.
 Elapsed time:       0 days  1 hours  0 minutes 55.9 seconds.
 File lengths (MBytes):  RWF=   6386 Int=      0 D2E=      0 Chk=    175 Scr=      2
 Normal termination of Gaussian 16 at Fri Jun 13 18:19:59 2025.
