 Entering Gaussian System, Link 0=g16
 Input=molecule.gjf
 Output=molecule.log
 Initial command:
 /share/apps/softwares/gaussian/16/g16/l1.exe "/share/home/kae/gaussian/corrtectedOI/torsion/theta70/Gau-13118.inp" -scrdir="/share/home/kae/gaussian/corrtectedOI/torsion/theta70/"
 Entering Link 1 = /share/apps/softwares/gaussian/16/g16/l1.exe PID=     13119.
  
 Copyright (c) 1988-2019, Gaussian, Inc.  All Rights Reserved.
  
 This is part of the Gaussian(R) 16 program.  It is based on
 the Gaussian(R) 09 system (copyright 2009, Gaussian, Inc.),
 the Gaussian(R) 03 system (copyright 2003, Gaussian, Inc.),
 the Gaussian(R) 98 system (copyright 1998, Gaussian, Inc.),
 the Gaussian(R) 94 system (copyright 1995, Gaussian, Inc.),
 the Gaussian 92(TM) system (copyright 1992, Gaussian, Inc.),
 the Gaussian 90(TM) system (copyright 1990, Gaussian, Inc.),
 the Gaussian 88(TM) system (copyright 1988, Gaussian, Inc.),
 the Gaussian 86(TM) system (copyright 1986, Carnegie Mellon
 University), and the Gaussian 82(TM) system (copyright 1983,
 Carnegie Mellon University). Gaussian is a federally registered
 trademark of Gaussian, Inc.
  
 This software contains proprietary and confidential information,
 including trade secrets, belonging to Gaussian, Inc.
  
 This software is provided under written license and may be
 used, copied, transmitted, or stored only in accord with that
 written license.
  
 The following legend is applicable only to US Government
 contracts under FAR:
  
                    RESTRICTED RIGHTS LEGEND
  
 Use, reproduction and disclosure by the US Government is
 subject to restrictions as set forth in subparagraphs (a)
 and (c) of the Commercial Computer Software - Restricted
 Rights clause in FAR 52.227-19.
  
 Gaussian, Inc.
 340 Quinnipiac St., Bldg. 40, Wallingford CT 06492
  
  
 ---------------------------------------------------------------
 Warning -- This program may not be used in any manner that
 competes with the business of Gaussian, Inc. or will provide
 assistance to any competitor of Gaussian, Inc.  The licensee
 of this program is prohibited from giving any competitor of
 Gaussian, Inc. access to this program.  By using this program,
 the user acknowledges that Gaussian, Inc. is engaged in the
 business of creating and licensing software in the field of
 computational chemistry and represents and warrants to the
 licensee that it is not a competitor of Gaussian, Inc. and that
 it will not use this program in any manner prohibited above.
 ---------------------------------------------------------------
  

 Cite this work as:
 Gaussian 16, Revision C.01,
 M. J. Frisch, G. W. Trucks, H. B. Schlegel, G. E. Scuseria, 
 M. A. Robb, J. R. Cheeseman, G. Scalmani, V. Barone, 
 G. A. Petersson, H. Nakatsuji, X. Li, M. Caricato, A. V. Marenich, 
 J. Bloino, B. G. Janesko, R. Gomperts, B. Mennucci, H. P. Hratchian, 
 J. V. Ortiz, A. F. Izmaylov, J. L. Sonnenberg, D. Williams-Young, 
 F. Ding, F. Lipparini, F. Egidi, J. Goings, B. Peng, A. Petrone, 
 T. Henderson, D. Ranasinghe, V. G. Zakrzewski, J. Gao, N. Rega, 
 G. Zheng, W. Liang, M. Hada, M. Ehara, K. Toyota, R. Fukuda, 
 J. Hasegawa, M. Ishida, T. Nakajima, Y. Honda, O. Kitao, H. Nakai, 
 T. Vreven, K. Throssell, J. A. Montgomery, Jr., J. E. Peralta, 
 F. Ogliaro, M. J. Bearpark, J. J. Heyd, E. N. Brothers, K. N. Kudin, 
 V. N. Staroverov, T. A. Keith, R. Kobayashi, J. Normand, 
 K. Raghavachari, A. P. Rendell, J. C. Burant, S. S. Iyengar, 
 J. Tomasi, M. Cossi, J. M. Millam, M. Klene, C. Adamo, R. Cammi, 
 J. W. Ochterski, R. L. Martin, K. Morokuma, O. Farkas, 
 J. B. Foresman, and D. J. Fox, Gaussian, Inc., Wallingford CT, 2019.
 
 ******************************************
 Gaussian 16:  ES64L-G16RevC.01  3-Jul-2019
                15-Aug-2025 
 ******************************************
 %mem=56GB
 %nprocshared=24
 Will use up to   24 processors via shared memory.
 %chk=molecule.chk
 ---------------------------------------------------
 #p opt=modredundant freq Ub3lyp/6-31g(d,p) em=gd3bj
 ---------------------------------------------------
 1/18=120,19=15,26=3,38=1/1,3;
 2/9=110,12=2,17=6,18=5,40=1/2;
 3/5=1,6=6,7=101,11=2,25=1,30=1,71=1,74=-5,116=2,124=41/1,2,3;
 4//1;
 5/5=2,38=5/2;
 6/7=2,8=2,9=2,10=2,28=1/1;
 7//1,2,3,16;
 1/18=20,19=15,26=3/3(2);
 2/9=110/2;
 99//99;
 2/9=110/2;
 3/5=1,6=6,7=101,11=2,25=1,30=1,71=1,74=-5,116=2,124=41/1,2,3;
 4/5=5,16=3,69=1/1;
 5/5=2,38=5/2;
 7//1,2,3,16;
 1/18=20,19=15,26=3/3(-5);
 2/9=110/2;
 6/7=2,8=2,9=2,10=2,19=2,28=1/1;
 99/9=1/99;
 Leave Link    1 at Fri Aug 15 20:57:34 2025, MaxMem=  7516192768 cpu:               1.4 elap:               0.1
 (Enter /share/apps/softwares/gaussian/16/g16/l101.exe)
 --------
 molecule
 --------
 Symbolic Z-matrix:
 Charge =  0 Multiplicity = 2
 C                    -0.58017  -0.00001  -0.00002 
 C                    -1.30599   0.42267  -1.12631 
 C                    -2.69683   0.4217   -1.12623 
 C                    -3.4172    0.       -0.00005 
 C                    -2.69685  -0.4217    1.12614 
 C                    -1.30602  -0.42268   1.12626 
 C                     0.89624  -0.00002  -0.00001 
 C                     1.62663  -0.27765  -1.17015 
 C                     3.01199  -0.2754   -1.17393 
 C                     3.75439  -0.00002   0.00001 
 C                     3.01197   0.27536   1.17395 
 C                     1.62661   0.2776    1.17015 
 H                    -0.7728    0.77872  -2.00187 
 H                    -3.23923   0.75765  -2.00448 
 H                    -3.23927  -0.75765   2.00439 
 H                    -0.77284  -0.77874   2.00182 
 H                     1.09501  -0.53768  -2.08002 
 H                     1.09498   0.53763   2.08002 
 C                     5.20759  0.         0.00002 
 C                     5.94223   1.05685  -0.6916 
 C                     6.66767   0.78948  -1.87507 
 C                     5.95824   2.38279  -0.20182 
 C                     7.36485   1.79537  -2.53393 
 C                     6.66068   3.38466  -0.86145 
 H                     5.42969   2.61007   0.71722 
 C                     7.3673    3.0995   -2.03249 
 H                     7.90258   1.56382  -3.44855 
 C                     5.94225  -1.05682   0.69162 
 C                     5.9583   -2.38276   0.20182 
 C                     6.66769  -0.78947   1.8751 
 C                     6.66078  -3.38462   0.86142 
 C                     7.36492  -1.79535   2.53392 
 C                     7.3674   -3.09947   2.03245 
 H                     6.66597  -4.39171   0.45511 
 H                     7.90265  -1.5638    3.44855 
 H                     7.91394   3.88343  -2.54721 
 H                     6.65852  -0.21592  -2.28094 
 H                     6.66586   4.39175  -0.45516 
 H                     7.91408  -3.88339   2.54715 
 H                     5.42972  -2.61004  -0.71721 
 H                     6.6585    0.21592   2.28102 
 H                     3.54308   0.5239    2.08572 
 H                     3.54311  -0.52397  -2.08569 
 C                    -5.60975  -1.22568  -0.0126 
 C                    -5.60975   1.22569   0.01246 
 C                    -4.94619  -2.49285  -0.05701 
 C                    -7.05391  -1.21925  -0.00497 
 C                    -7.05391   1.21928   0.0048 
 C                    -4.94618   2.49287   0.05688 
 C                    -5.65497  -3.66474  -0.06641 
 H                    -3.86351  -2.51246  -0.08897 
 C                    -7.75379  -2.46483  -0.0118 
 C                    -7.75378   2.46485   0.01162 
 H                    -3.8635    2.51246   0.08886 
 C                    -5.65495   3.66476   0.06626 
 C                    -7.07825  -3.65419  -0.03736 
 H                    -5.1289   -4.61381  -0.10193 
 H                    -8.83998  -2.44367   0.00062 
 C                    -7.07823   3.65421   0.03719 
 H                    -8.83997   2.4437   -0.00082 
 H                    -5.12888   4.61382   0.1018 
 H                    -7.62245  -4.59353  -0.04303 
 H                    -7.62242   4.59356   0.04285 
 C                    -4.90647   0.00001  -0.00006 
 C                    -7.73559   0.00001  -0.00009 
 H                    -8.8227    0.00002  -0.0001 
 
 The following ModRedundant input section has been read:
 D      10      19      20      21 F                                           
 D      10      19      28      30 F                                           
 D      11      10      19      20 F                                           
 
 ITRead=  0  0  0  0  0  0  0  0  0  0  0  0  0  0  0  0  0  0  0  0
 ITRead=  0  0  0  0  0  0  0  0  0  0  0  0  0  0  0  0  0  0  0  0
 ITRead=  0  0  0  0  0  0  0  0  0  0  0  0  0  0  0  0  0  0  0  0
 ITRead=  0  0  0  0  0  0
 MicOpt= -1 -1 -1 -1 -1 -1 -1 -1 -1 -1 -1 -1 -1 -1 -1 -1 -1 -1 -1 -1
 MicOpt= -1 -1 -1 -1 -1 -1 -1 -1 -1 -1 -1 -1 -1 -1 -1 -1 -1 -1 -1 -1
 MicOpt= -1 -1 -1 -1 -1 -1 -1 -1 -1 -1 -1 -1 -1 -1 -1 -1 -1 -1 -1 -1
 MicOpt= -1 -1 -1 -1 -1 -1
 NAtoms=     66 NQM=       66 NQMF=       0 NMMI=      0 NMMIF=      0
                NMic=       0 NMicF=      0.
                    Isotopes and Nuclear Properties:
 (Nuclear quadrupole moments (NQMom) in fm**2, nuclear magnetic moments (NMagM)
  in nuclear magnetons)

  Atom         1           2           3           4           5           6           7           8           9          10
 IAtWgt=          12          12          12          12          12          12          12          12          12          12
 AtmWgt=  12.0000000  12.0000000  12.0000000  12.0000000  12.0000000  12.0000000  12.0000000  12.0000000  12.0000000  12.0000000
 NucSpn=           0           0           0           0           0           0           0           0           0           0
 AtZEff=  -0.0000000  -0.0000000  -0.0000000  -0.0000000  -0.0000000  -0.0000000  -0.0000000  -0.0000000  -0.0000000  -0.0000000
 NQMom=    0.0000000   0.0000000   0.0000000   0.0000000   0.0000000   0.0000000   0.0000000   0.0000000   0.0000000   0.0000000
 NMagM=    0.0000000   0.0000000   0.0000000   0.0000000   0.0000000   0.0000000   0.0000000   0.0000000   0.0000000   0.0000000
 AtZNuc=   6.0000000   6.0000000   6.0000000   6.0000000   6.0000000   6.0000000   6.0000000   6.0000000   6.0000000   6.0000000

  Atom        11          12          13          14          15          16          17          18          19          20
 IAtWgt=          12          12           1           1           1           1           1           1          12          12
 AtmWgt=  12.0000000  12.0000000   1.0078250   1.0078250   1.0078250   1.0078250   1.0078250   1.0078250  12.0000000  12.0000000
 NucSpn=           0           0           1           1           1           1           1           1           0           0
 AtZEff=  -0.0000000  -0.0000000  -0.0000000  -0.0000000  -0.0000000  -0.0000000  -0.0000000  -0.0000000  -0.0000000  -0.0000000
 NQMom=    0.0000000   0.0000000   0.0000000   0.0000000   0.0000000   0.0000000   0.0000000   0.0000000   0.0000000   0.0000000
 NMagM=    0.0000000   0.0000000   2.7928460   2.7928460   2.7928460   2.7928460   2.7928460   2.7928460   0.0000000   0.0000000
 AtZNuc=   6.0000000   6.0000000   1.0000000   1.0000000   1.0000000   1.0000000   1.0000000   1.0000000   6.0000000   6.0000000

  Atom        21          22          23          24          25          26          27          28          29          30
 IAtWgt=          12          12          12          12           1          12           1          12          12          12
 AtmWgt=  12.0000000  12.0000000  12.0000000  12.0000000   1.0078250  12.0000000   1.0078250  12.0000000  12.0000000  12.0000000
 NucSpn=           0           0           0           0           1           0           1           0           0           0
 AtZEff=  -0.0000000  -0.0000000  -0.0000000  -0.0000000  -0.0000000  -0.0000000  -0.0000000  -0.0000000  -0.0000000  -0.0000000
 NQMom=    0.0000000   0.0000000   0.0000000   0.0000000   0.0000000   0.0000000   0.0000000   0.0000000   0.0000000   0.0000000
 NMagM=    0.0000000   0.0000000   0.0000000   0.0000000   2.7928460   0.0000000   2.7928460   0.0000000   0.0000000   0.0000000
 AtZNuc=   6.0000000   6.0000000   6.0000000   6.0000000   1.0000000   6.0000000   1.0000000   6.0000000   6.0000000   6.0000000

  Atom        31          32          33          34          35          36          37          38          39          40
 IAtWgt=          12          12          12           1           1           1           1           1           1           1
 AtmWgt=  12.0000000  12.0000000  12.0000000   1.0078250   1.0078250   1.0078250   1.0078250   1.0078250   1.0078250   1.0078250
 NucSpn=           0           0           0           1           1           1           1           1           1           1
 AtZEff=  -0.0000000  -0.0000000  -0.0000000  -0.0000000  -0.0000000  -0.0000000  -0.0000000  -0.0000000  -0.0000000  -0.0000000
 NQMom=    0.0000000   0.0000000   0.0000000   0.0000000   0.0000000   0.0000000   0.0000000   0.0000000   0.0000000   0.0000000
 NMagM=    0.0000000   0.0000000   0.0000000   2.7928460   2.7928460   2.7928460   2.7928460   2.7928460   2.7928460   2.7928460
 AtZNuc=   6.0000000   6.0000000   6.0000000   1.0000000   1.0000000   1.0000000   1.0000000   1.0000000   1.0000000   1.0000000

  Atom        41          42          43          44          45          46          47          48          49          50
 IAtWgt=           1           1           1          12          12          12          12          12          12          12
 AtmWgt=   1.0078250   1.0078250   1.0078250  12.0000000  12.0000000  12.0000000  12.0000000  12.0000000  12.0000000  12.0000000
 NucSpn=           1           1           1           0           0           0           0           0           0           0
 AtZEff=  -0.0000000  -0.0000000  -0.0000000  -0.0000000  -0.0000000  -0.0000000  -0.0000000  -0.0000000  -0.0000000  -0.0000000
 NQMom=    0.0000000   0.0000000   0.0000000   0.0000000   0.0000000   0.0000000   0.0000000   0.0000000   0.0000000   0.0000000
 NMagM=    2.7928460   2.7928460   2.7928460   0.0000000   0.0000000   0.0000000   0.0000000   0.0000000   0.0000000   0.0000000
 AtZNuc=   1.0000000   1.0000000   1.0000000   6.0000000   6.0000000   6.0000000   6.0000000   6.0000000   6.0000000   6.0000000

  Atom        51          52          53          54          55          56          57          58          59          60
 IAtWgt=           1          12          12           1          12          12           1           1          12           1
 AtmWgt=   1.0078250  12.0000000  12.0000000   1.0078250  12.0000000  12.0000000   1.0078250   1.0078250  12.0000000   1.0078250
 NucSpn=           1           0           0           1           0           0           1           1           0           1
 AtZEff=  -0.0000000  -0.0000000  -0.0000000  -0.0000000  -0.0000000  -0.0000000  -0.0000000  -0.0000000  -0.0000000  -0.0000000
 NQMom=    0.0000000   0.0000000   0.0000000   0.0000000   0.0000000   0.0000000   0.0000000   0.0000000   0.0000000   0.0000000
 NMagM=    2.7928460   0.0000000   0.0000000   2.7928460   0.0000000   0.0000000   2.7928460   2.7928460   0.0000000   2.7928460
 AtZNuc=   1.0000000   6.0000000   6.0000000   1.0000000   6.0000000   6.0000000   1.0000000   1.0000000   6.0000000   1.0000000

  Atom        61          62          63          64          65          66
 IAtWgt=           1           1           1          12          12           1
 AtmWgt=   1.0078250   1.0078250   1.0078250  12.0000000  12.0000000   1.0078250
 NucSpn=           1           1           1           0           0           1
 AtZEff=  -0.0000000  -0.0000000  -0.0000000  -0.0000000  -0.0000000  -0.0000000
 NQMom=    0.0000000   0.0000000   0.0000000   0.0000000   0.0000000   0.0000000
 NMagM=    2.7928460   2.7928460   2.7928460   0.0000000   0.0000000   2.7928460
 AtZNuc=   1.0000000   1.0000000   1.0000000   6.0000000   6.0000000   1.0000000
 Leave Link  101 at Fri Aug 15 20:57:35 2025, MaxMem=  7516192768 cpu:               9.8 elap:               0.5
 (Enter /share/apps/softwares/gaussian/16/g16/l103.exe)

 GradGradGradGradGradGradGradGradGradGradGradGradGradGradGradGradGradGrad
 Berny optimization.
 Initialization pass.
                           ----------------------------
                           !    Initial Parameters    !
                           ! (Angstroms and Degrees)  !
 --------------------------                            --------------------------
 ! Name  Definition              Value          Derivative Info.                !
 --------------------------------------------------------------------------------
 ! R1    R(1,2)                  1.405          estimate D2E/DX2                !
 ! R2    R(1,6)                  1.405          estimate D2E/DX2                !
 ! R3    R(1,7)                  1.4764         estimate D2E/DX2                !
 ! R4    R(2,3)                  1.3908         estimate D2E/DX2                !
 ! R5    R(2,13)                 1.0852         estimate D2E/DX2                !
 ! R6    R(3,4)                  1.4018         estimate D2E/DX2                !
 ! R7    R(3,14)                 1.0855         estimate D2E/DX2                !
 ! R8    R(4,5)                  1.4018         estimate D2E/DX2                !
 ! R9    R(4,64)                 1.4893         estimate D2E/DX2                !
 ! R10   R(5,6)                  1.3908         estimate D2E/DX2                !
 ! R11   R(5,15)                 1.0855         estimate D2E/DX2                !
 ! R12   R(6,16)                 1.0852         estimate D2E/DX2                !
 ! R13   R(7,8)                  1.407          estimate D2E/DX2                !
 ! R14   R(7,12)                 1.407          estimate D2E/DX2                !
 ! R15   R(8,9)                  1.3854         estimate D2E/DX2                !
 ! R16   R(8,17)                 1.0854         estimate D2E/DX2                !
 ! R17   R(9,10)                 1.416          estimate D2E/DX2                !
 ! R18   R(9,43)                 1.0841         estimate D2E/DX2                !
 ! R19   R(10,11)                1.416          estimate D2E/DX2                !
 ! R20   R(10,19)                1.4532         estimate D2E/DX2                !
 ! R21   R(11,12)                1.3854         estimate D2E/DX2                !
 ! R22   R(11,42)                1.0841         estimate D2E/DX2                !
 ! R23   R(12,18)                1.0854         estimate D2E/DX2                !
 ! R24   R(19,20)                1.4612         estimate D2E/DX2                !
 ! R25   R(19,28)                1.4611         estimate D2E/DX2                !
 ! R26   R(20,21)                1.4136         estimate D2E/DX2                !
 ! R27   R(20,22)                1.4136         estimate D2E/DX2                !
 ! R28   R(21,23)                1.39           estimate D2E/DX2                !
 ! R29   R(21,37)                1.0843         estimate D2E/DX2                !
 ! R30   R(22,24)                1.3901         estimate D2E/DX2                !
 ! R31   R(22,25)                1.0843         estimate D2E/DX2                !
 ! R32   R(23,26)                1.3972         estimate D2E/DX2                !
 ! R33   R(23,27)                1.086          estimate D2E/DX2                !
 ! R34   R(24,26)                1.3971         estimate D2E/DX2                !
 ! R35   R(24,38)                1.086          estimate D2E/DX2                !
 ! R36   R(26,36)                1.0855         estimate D2E/DX2                !
 ! R37   R(28,29)                1.4136         estimate D2E/DX2                !
 ! R38   R(28,30)                1.4136         estimate D2E/DX2                !
 ! R39   R(29,31)                1.3901         estimate D2E/DX2                !
 ! R40   R(29,40)                1.0843         estimate D2E/DX2                !
 ! R41   R(30,32)                1.39           estimate D2E/DX2                !
 ! R42   R(30,41)                1.0843         estimate D2E/DX2                !
 ! R43   R(31,33)                1.3971         estimate D2E/DX2                !
 ! R44   R(31,34)                1.086          estimate D2E/DX2                !
 ! R45   R(32,33)                1.3972         estimate D2E/DX2                !
 ! R46   R(32,35)                1.086          estimate D2E/DX2                !
 ! R47   R(33,39)                1.0855         estimate D2E/DX2                !
 ! R48   R(44,46)                1.4311         estimate D2E/DX2                !
 ! R49   R(44,47)                1.4442         estimate D2E/DX2                !
 ! R50   R(44,64)                1.4132         estimate D2E/DX2                !
 ! R51   R(45,48)                1.4442         estimate D2E/DX2                !
 ! R52   R(45,49)                1.4311         estimate D2E/DX2                !
 ! R53   R(45,64)                1.4132         estimate D2E/DX2                !
 ! R54   R(46,50)                1.3696         estimate D2E/DX2                !
 ! R55   R(46,51)                1.0833         estimate D2E/DX2                !
 ! R56   R(47,52)                1.4288         estimate D2E/DX2                !
 ! R57   R(47,65)                1.3969         estimate D2E/DX2                !
 ! R58   R(48,53)                1.4288         estimate D2E/DX2                !
 ! R59   R(48,65)                1.3969         estimate D2E/DX2                !
 ! R60   R(49,54)                1.0833         estimate D2E/DX2                !
 ! R61   R(49,55)                1.3696         estimate D2E/DX2                !
 ! R62   R(50,56)                1.4236         estimate D2E/DX2                !
 ! R63   R(50,57)                1.0857         estimate D2E/DX2                !
 ! R64   R(52,56)                1.3681         estimate D2E/DX2                !
 ! R65   R(52,58)                1.0865         estimate D2E/DX2                !
 ! R66   R(53,59)                1.3681         estimate D2E/DX2                !
 ! R67   R(53,60)                1.0865         estimate D2E/DX2                !
 ! R68   R(55,59)                1.4236         estimate D2E/DX2                !
 ! R69   R(55,61)                1.0857         estimate D2E/DX2                !
 ! R70   R(56,62)                1.0856         estimate D2E/DX2                !
 ! R71   R(59,63)                1.0856         estimate D2E/DX2                !
 ! R72   R(65,66)                1.0871         estimate D2E/DX2                !
 ! A1    A(2,1,6)              117.7898         estimate D2E/DX2                !
 ! A2    A(2,1,7)              121.1051         estimate D2E/DX2                !
 ! A3    A(6,1,7)              121.1051         estimate D2E/DX2                !
 ! A4    A(1,2,3)              121.0871         estimate D2E/DX2                !
 ! A5    A(1,2,13)             119.449          estimate D2E/DX2                !
 ! A6    A(3,2,13)             119.4467         estimate D2E/DX2                !
 ! A7    A(2,3,4)              120.9407         estimate D2E/DX2                !
 ! A8    A(2,3,14)             119.9598         estimate D2E/DX2                !
 ! A9    A(4,3,14)             119.098          estimate D2E/DX2                !
 ! A10   A(3,4,5)              118.1546         estimate D2E/DX2                !
 ! A11   A(3,4,64)             120.9228         estimate D2E/DX2                !
 ! A12   A(5,4,64)             120.9227         estimate D2E/DX2                !
 ! A13   A(4,5,6)              120.9406         estimate D2E/DX2                !
 ! A14   A(4,5,15)             119.0981         estimate D2E/DX2                !
 ! A15   A(6,5,15)             119.9598         estimate D2E/DX2                !
 ! A16   A(1,6,5)              121.0871         estimate D2E/DX2                !
 ! A17   A(1,6,16)             119.449          estimate D2E/DX2                !
 ! A18   A(5,6,16)             119.4466         estimate D2E/DX2                !
 ! A19   A(1,7,8)              121.271          estimate D2E/DX2                !
 ! A20   A(1,7,12)             121.2711         estimate D2E/DX2                !
 ! A21   A(8,7,12)             117.4579         estimate D2E/DX2                !
 ! A22   A(7,8,9)              121.4019         estimate D2E/DX2                !
 ! A23   A(7,8,17)             119.3511         estimate D2E/DX2                !
 ! A24   A(9,8,17)             119.2021         estimate D2E/DX2                !
 ! A25   A(8,9,10)             121.4892         estimate D2E/DX2                !
 ! A26   A(8,9,43)             119.4623         estimate D2E/DX2                !
 ! A27   A(10,9,43)            119.0127         estimate D2E/DX2                !
 ! A28   A(9,10,11)            116.7589         estimate D2E/DX2                !
 ! A29   A(9,10,19)            121.6205         estimate D2E/DX2                !
 ! A30   A(11,10,19)           121.6205         estimate D2E/DX2                !
 ! A31   A(10,11,12)           121.4893         estimate D2E/DX2                !
 ! A32   A(10,11,42)           119.0125         estimate D2E/DX2                !
 ! A33   A(12,11,42)           119.4625         estimate D2E/DX2                !
 ! A34   A(7,12,11)            121.4018         estimate D2E/DX2                !
 ! A35   A(7,12,18)            119.3512         estimate D2E/DX2                !
 ! A36   A(11,12,18)           119.2022         estimate D2E/DX2                !
 ! A37   A(10,19,20)           120.1844         estimate D2E/DX2                !
 ! A38   A(10,19,28)           120.1856         estimate D2E/DX2                !
 ! A39   A(20,19,28)           119.6299         estimate D2E/DX2                !
 ! A40   A(19,20,21)           121.1637         estimate D2E/DX2                !
 ! A41   A(19,20,22)           121.3419         estimate D2E/DX2                !
 ! A42   A(21,20,22)           117.4942         estimate D2E/DX2                !
 ! A43   A(20,21,23)           121.1558         estimate D2E/DX2                !
 ! A44   A(20,21,37)           118.9753         estimate D2E/DX2                !
 ! A45   A(23,21,37)           119.8568         estimate D2E/DX2                !
 ! A46   A(20,22,24)           121.155          estimate D2E/DX2                !
 ! A47   A(20,22,25)           118.9973         estimate D2E/DX2                !
 ! A48   A(24,22,25)           119.8329         estimate D2E/DX2                !
 ! A49   A(21,23,26)           120.4133         estimate D2E/DX2                !
 ! A50   A(21,23,27)           119.5574         estimate D2E/DX2                !
 ! A51   A(26,23,27)           120.0272         estimate D2E/DX2                !
 ! A52   A(22,24,26)           120.412          estimate D2E/DX2                !
 ! A53   A(22,24,38)           119.5552         estimate D2E/DX2                !
 ! A54   A(26,24,38)           120.03           estimate D2E/DX2                !
 ! A55   A(23,26,24)           119.369          estimate D2E/DX2                !
 ! A56   A(23,26,36)           120.3167         estimate D2E/DX2                !
 ! A57   A(24,26,36)           120.3143         estimate D2E/DX2                !
 ! A58   A(19,28,29)           121.3412         estimate D2E/DX2                !
 ! A59   A(19,28,30)           121.1647         estimate D2E/DX2                !
 ! A60   A(29,28,30)           117.4939         estimate D2E/DX2                !
 ! A61   A(28,29,31)           121.1551         estimate D2E/DX2                !
 ! A62   A(28,29,40)           118.9969         estimate D2E/DX2                !
 ! A63   A(31,29,40)           119.8332         estimate D2E/DX2                !
 ! A64   A(28,30,32)           121.1558         estimate D2E/DX2                !
 ! A65   A(28,30,41)           118.9754         estimate D2E/DX2                !
 ! A66   A(32,30,41)           119.8566         estimate D2E/DX2                !
 ! A67   A(29,31,33)           120.4121         estimate D2E/DX2                !
 ! A68   A(29,31,34)           119.5551         estimate D2E/DX2                !
 ! A69   A(33,31,34)           120.0299         estimate D2E/DX2                !
 ! A70   A(30,32,33)           120.4135         estimate D2E/DX2                !
 ! A71   A(30,32,35)           119.5572         estimate D2E/DX2                !
 ! A72   A(33,32,35)           120.0271         estimate D2E/DX2                !
 ! A73   A(31,33,32)           119.3689         estimate D2E/DX2                !
 ! A74   A(31,33,39)           120.3144         estimate D2E/DX2                !
 ! A75   A(32,33,39)           120.3167         estimate D2E/DX2                !
 ! A76   A(46,44,47)           117.8892         estimate D2E/DX2                !
 ! A77   A(46,44,64)           122.5141         estimate D2E/DX2                !
 ! A78   A(47,44,64)           119.5871         estimate D2E/DX2                !
 ! A79   A(48,45,49)           117.8892         estimate D2E/DX2                !
 ! A80   A(48,45,64)           119.5872         estimate D2E/DX2                !
 ! A81   A(49,45,64)           122.514          estimate D2E/DX2                !
 ! A82   A(44,46,50)           121.1915         estimate D2E/DX2                !
 ! A83   A(44,46,51)           118.7073         estimate D2E/DX2                !
 ! A84   A(50,46,51)           120.1004         estimate D2E/DX2                !
 ! A85   A(44,47,52)           119.0741         estimate D2E/DX2                !
 ! A86   A(44,47,65)           119.4642         estimate D2E/DX2                !
 ! A87   A(52,47,65)           121.4603         estimate D2E/DX2                !
 ! A88   A(45,48,53)           119.0741         estimate D2E/DX2                !
 ! A89   A(45,48,65)           119.4642         estimate D2E/DX2                !
 ! A90   A(53,48,65)           121.4603         estimate D2E/DX2                !
 ! A91   A(45,49,54)           118.7072         estimate D2E/DX2                !
 ! A92   A(45,49,55)           121.1915         estimate D2E/DX2                !
 ! A93   A(54,49,55)           120.1004         estimate D2E/DX2                !
 ! A94   A(46,50,56)           120.7242         estimate D2E/DX2                !
 ! A95   A(46,50,57)           119.8304         estimate D2E/DX2                !
 ! A96   A(56,50,57)           119.4445         estimate D2E/DX2                !
 ! A97   A(47,52,56)           121.0721         estimate D2E/DX2                !
 ! A98   A(47,52,58)           118.2094         estimate D2E/DX2                !
 ! A99   A(56,52,58)           120.7182         estimate D2E/DX2                !
 ! A100  A(48,53,59)           121.0721         estimate D2E/DX2                !
 ! A101  A(48,53,60)           118.2093         estimate D2E/DX2                !
 ! A102  A(59,53,60)           120.7183         estimate D2E/DX2                !
 ! A103  A(49,55,59)           120.7243         estimate D2E/DX2                !
 ! A104  A(49,55,61)           119.8304         estimate D2E/DX2                !
 ! A105  A(59,55,61)           119.4445         estimate D2E/DX2                !
 ! A106  A(50,56,52)           120.0335         estimate D2E/DX2                !
 ! A107  A(50,56,62)           119.6462         estimate D2E/DX2                !
 ! A108  A(52,56,62)           120.3187         estimate D2E/DX2                !
 ! A109  A(53,59,55)           120.0335         estimate D2E/DX2                !
 ! A110  A(53,59,63)           120.3187         estimate D2E/DX2                !
 ! A111  A(55,59,63)           119.6462         estimate D2E/DX2                !
 ! A112  A(4,64,44)            119.8452         estimate D2E/DX2                !
 ! A113  A(4,64,45)            119.8453         estimate D2E/DX2                !
 ! A114  A(44,64,45)           120.3094         estimate D2E/DX2                !
 ! A115  A(47,65,48)           121.5823         estimate D2E/DX2                !
 ! A116  A(47,65,66)           119.2088         estimate D2E/DX2                !
 ! A117  A(48,65,66)           119.2089         estimate D2E/DX2                !
 ! D1    D(6,1,2,3)             -0.0421         estimate D2E/DX2                !
 ! D2    D(6,1,2,13)           178.4402         estimate D2E/DX2                !
 ! D3    D(7,1,2,3)            179.9579         estimate D2E/DX2                !
 ! D4    D(7,1,2,13)            -1.5599         estimate D2E/DX2                !
 ! D5    D(2,1,6,5)             -0.0421         estimate D2E/DX2                !
 ! D6    D(2,1,6,16)           178.4402         estimate D2E/DX2                !
 ! D7    D(7,1,6,5)            179.9579         estimate D2E/DX2                !
 ! D8    D(7,1,6,16)            -1.5598         estimate D2E/DX2                !
 ! D9    D(2,1,7,8)            -33.9172         estimate D2E/DX2                !
 ! D10   D(2,1,7,12)           146.083          estimate D2E/DX2                !
 ! D11   D(6,1,7,8)            146.0827         estimate D2E/DX2                !
 ! D12   D(6,1,7,12)           -33.9171         estimate D2E/DX2                !
 ! D13   D(1,2,3,4)              0.0851         estimate D2E/DX2                !
 ! D14   D(1,2,3,14)           179.6382         estimate D2E/DX2                !
 ! D15   D(13,2,3,4)          -178.3972         estimate D2E/DX2                !
 ! D16   D(13,2,3,14)            1.156          estimate D2E/DX2                !
 ! D17   D(2,3,4,5)             -0.0421         estimate D2E/DX2                !
 ! D18   D(2,3,4,64)           179.958          estimate D2E/DX2                !
 ! D19   D(14,3,4,5)          -179.5991         estimate D2E/DX2                !
 ! D20   D(14,3,4,64)            0.4011         estimate D2E/DX2                !
 ! D21   D(3,4,5,6)             -0.042          estimate D2E/DX2                !
 ! D22   D(3,4,5,15)          -179.599          estimate D2E/DX2                !
 ! D23   D(64,4,5,6)           179.9579         estimate D2E/DX2                !
 ! D24   D(64,4,5,15)            0.4009         estimate D2E/DX2                !
 ! D25   D(3,4,64,44)          109.9427         estimate D2E/DX2                !
 ! D26   D(3,4,64,45)          -70.0572         estimate D2E/DX2                !
 ! D27   D(5,4,64,44)          -70.0571         estimate D2E/DX2                !
 ! D28   D(5,4,64,45)          109.9429         estimate D2E/DX2                !
 ! D29   D(4,5,6,1)              0.085          estimate D2E/DX2                !
 ! D30   D(4,5,6,16)          -178.3973         estimate D2E/DX2                !
 ! D31   D(15,5,6,1)           179.6382         estimate D2E/DX2                !
 ! D32   D(15,5,6,16)            1.1559         estimate D2E/DX2                !
 ! D33   D(1,7,8,9)            179.8515         estimate D2E/DX2                !
 ! D34   D(1,7,8,17)            -2.6033         estimate D2E/DX2                !
 ! D35   D(12,7,8,9)            -0.1487         estimate D2E/DX2                !
 ! D36   D(12,7,8,17)          177.3965         estimate D2E/DX2                !
 ! D37   D(1,7,12,11)          179.8522         estimate D2E/DX2                !
 ! D38   D(1,7,12,18)           -2.6027         estimate D2E/DX2                !
 ! D39   D(8,7,12,11)           -0.1477         estimate D2E/DX2                !
 ! D40   D(8,7,12,18)          177.3975         estimate D2E/DX2                !
 ! D41   D(7,8,9,10)             0.2997         estimate D2E/DX2                !
 ! D42   D(7,8,9,43)           178.101          estimate D2E/DX2                !
 ! D43   D(17,8,9,10)         -177.2491         estimate D2E/DX2                !
 ! D44   D(17,8,9,43)            0.5522         estimate D2E/DX2                !
 ! D45   D(8,9,10,11)           -0.1472         estimate D2E/DX2                !
 ! D46   D(8,9,10,19)          179.8526         estimate D2E/DX2                !
 ! D47   D(43,9,10,11)        -177.9582         estimate D2E/DX2                !
 ! D48   D(43,9,10,19)           2.0416         estimate D2E/DX2                !
 ! D49   D(9,10,11,12)          -0.1487         estimate D2E/DX2                !
 ! D50   D(9,10,11,42)        -177.9606         estimate D2E/DX2                !
 ! D51   D(19,10,11,12)        179.8516         estimate D2E/DX2                !
 ! D52   D(19,10,11,42)          2.0396         estimate D2E/DX2                !
 ! D53   D(9,10,19,20)          70.0002         estimate D2E/DX2                !
 ! D54   D(9,10,19,28)        -109.9992         estimate D2E/DX2                !
 ! D55   D(11,10,19,20)       -110.0            Frozen                          !
 ! D56   D(11,10,19,28)         70.0005         estimate D2E/DX2                !
 ! D57   D(10,11,12,7)           0.2999         estimate D2E/DX2                !
 ! D58   D(10,11,12,18)       -177.2488         estimate D2E/DX2                !
 ! D59   D(42,11,12,7)         178.1022         estimate D2E/DX2                !
 ! D60   D(42,11,12,18)          0.5535         estimate D2E/DX2                !
 ! D61   D(10,19,20,21)       -110.0            Frozen                          !
 ! D62   D(10,19,20,22)         70.1912         estimate D2E/DX2                !
 ! D63   D(28,19,20,21)         69.9995         estimate D2E/DX2                !
 ! D64   D(28,19,20,22)       -109.8093         estimate D2E/DX2                !
 ! D65   D(10,19,28,29)         70.1913         estimate D2E/DX2                !
 ! D66   D(10,19,28,30)       -110.0            Frozen                          !
 ! D67   D(20,19,28,29)       -109.8082         estimate D2E/DX2                !
 ! D68   D(20,19,28,30)         70.0005         estimate D2E/DX2                !
 ! D69   D(19,20,21,23)        179.9049         estimate D2E/DX2                !
 ! D70   D(19,20,21,37)          1.1737         estimate D2E/DX2                !
 ! D71   D(22,20,21,23)         -0.2792         estimate D2E/DX2                !
 ! D72   D(22,20,21,37)       -179.0104         estimate D2E/DX2                !
 ! D73   D(19,20,22,24)        179.8684         estimate D2E/DX2                !
 ! D74   D(19,20,22,25)          1.271          estimate D2E/DX2                !
 ! D75   D(21,20,22,24)          0.0529         estimate D2E/DX2                !
 ! D76   D(21,20,22,25)       -178.5445         estimate D2E/DX2                !
 ! D77   D(20,21,23,26)          0.2828         estimate D2E/DX2                !
 ! D78   D(20,21,23,27)       -179.1828         estimate D2E/DX2                !
 ! D79   D(37,21,23,26)        179.003          estimate D2E/DX2                !
 ! D80   D(37,21,23,27)         -0.4626         estimate D2E/DX2                !
 ! D81   D(20,22,24,26)          0.1713         estimate D2E/DX2                !
 ! D82   D(20,22,24,38)       -179.2118         estimate D2E/DX2                !
 ! D83   D(25,22,24,26)        178.7572         estimate D2E/DX2                !
 ! D84   D(25,22,24,38)         -0.6259         estimate D2E/DX2                !
 ! D85   D(21,23,26,24)         -0.0523         estimate D2E/DX2                !
 ! D86   D(21,23,26,36)        179.8772         estimate D2E/DX2                !
 ! D87   D(27,23,26,24)        179.4108         estimate D2E/DX2                !
 ! D88   D(27,23,26,36)         -0.6598         estimate D2E/DX2                !
 ! D89   D(22,24,26,23)         -0.1727         estimate D2E/DX2                !
 ! D90   D(22,24,26,36)        179.8978         estimate D2E/DX2                !
 ! D91   D(38,24,26,23)        179.2075         estimate D2E/DX2                !
 ! D92   D(38,24,26,36)         -0.722          estimate D2E/DX2                !
 ! D93   D(19,28,29,31)        179.8678         estimate D2E/DX2                !
 ! D94   D(19,28,29,40)          1.2689         estimate D2E/DX2                !
 ! D95   D(30,28,29,31)          0.0523         estimate D2E/DX2                !
 ! D96   D(30,28,29,40)       -178.5466         estimate D2E/DX2                !
 ! D97   D(19,28,30,32)        179.9061         estimate D2E/DX2                !
 ! D98   D(19,28,30,41)          1.1749         estimate D2E/DX2                !
 ! D99   D(29,28,30,32)         -0.2781         estimate D2E/DX2                !
 ! D100  D(29,28,30,41)       -179.0093         estimate D2E/DX2                !
 ! D101  D(28,29,31,33)          0.1709         estimate D2E/DX2                !
 ! D102  D(28,29,31,34)       -179.212          estimate D2E/DX2                !
 ! D103  D(40,29,31,33)        178.7583         estimate D2E/DX2                !
 ! D104  D(40,29,31,34)         -0.6247         estimate D2E/DX2                !
 ! D105  D(28,30,32,33)          0.2822         estimate D2E/DX2                !
 ! D106  D(28,30,32,35)       -179.1832         estimate D2E/DX2                !
 ! D107  D(41,30,32,33)        179.0023         estimate D2E/DX2                !
 ! D108  D(41,30,32,35)         -0.4631         estimate D2E/DX2                !
 ! D109  D(29,31,33,32)         -0.1718         estimate D2E/DX2                !
 ! D110  D(29,31,33,39)        179.8983         estimate D2E/DX2                !
 ! D111  D(34,31,33,32)        179.2082         estimate D2E/DX2                !
 ! D112  D(34,31,33,39)         -0.7218         estimate D2E/DX2                !
 ! D113  D(30,32,33,31)         -0.0527         estimate D2E/DX2                !
 ! D114  D(30,32,33,39)        179.8773         estimate D2E/DX2                !
 ! D115  D(35,32,33,31)        179.4102         estimate D2E/DX2                !
 ! D116  D(35,32,33,39)         -0.6599         estimate D2E/DX2                !
 ! D117  D(47,44,46,50)         -1.216          estimate D2E/DX2                !
 ! D118  D(47,44,46,51)        178.4469         estimate D2E/DX2                !
 ! D119  D(64,44,46,50)        179.9138         estimate D2E/DX2                !
 ! D120  D(64,44,46,51)         -0.4233         estimate D2E/DX2                !
 ! D121  D(46,44,47,52)          1.3704         estimate D2E/DX2                !
 ! D122  D(46,44,47,65)       -178.2072         estimate D2E/DX2                !
 ! D123  D(64,44,47,52)       -179.7252         estimate D2E/DX2                !
 ! D124  D(64,44,47,65)          0.6973         estimate D2E/DX2                !
 ! D125  D(46,44,64,4)          -1.4939         estimate D2E/DX2                !
 ! D126  D(46,44,64,45)        178.5061         estimate D2E/DX2                !
 ! D127  D(47,44,64,4)         179.6544         estimate D2E/DX2                !
 ! D128  D(47,44,64,45)         -0.3456         estimate D2E/DX2                !
 ! D129  D(49,45,48,53)          1.3704         estimate D2E/DX2                !
 ! D130  D(49,45,48,65)       -178.2072         estimate D2E/DX2                !
 ! D131  D(64,45,48,53)       -179.7252         estimate D2E/DX2                !
 ! D132  D(64,45,48,65)          0.6972         estimate D2E/DX2                !
 ! D133  D(48,45,49,54)        178.4469         estimate D2E/DX2                !
 ! D134  D(48,45,49,55)         -1.216          estimate D2E/DX2                !
 ! D135  D(64,45,49,54)         -0.4232         estimate D2E/DX2                !
 ! D136  D(64,45,49,55)        179.9138         estimate D2E/DX2                !
 ! D137  D(48,45,64,4)         179.6544         estimate D2E/DX2                !
 ! D138  D(48,45,64,44)         -0.3455         estimate D2E/DX2                !
 ! D139  D(49,45,64,4)          -1.4939         estimate D2E/DX2                !
 ! D140  D(49,45,64,44)        178.5061         estimate D2E/DX2                !
 ! D141  D(44,46,50,56)          0.2468         estimate D2E/DX2                !
 ! D142  D(44,46,50,57)        179.9045         estimate D2E/DX2                !
 ! D143  D(51,46,50,56)       -179.4115         estimate D2E/DX2                !
 ! D144  D(51,46,50,57)          0.2462         estimate D2E/DX2                !
 ! D145  D(44,47,52,56)         -0.5864         estimate D2E/DX2                !
 ! D146  D(44,47,52,58)        179.6083         estimate D2E/DX2                !
 ! D147  D(65,47,52,56)        178.9824         estimate D2E/DX2                !
 ! D148  D(65,47,52,58)         -0.8229         estimate D2E/DX2                !
 ! D149  D(44,47,65,48)         -0.347          estimate D2E/DX2                !
 ! D150  D(44,47,65,66)        179.653          estimate D2E/DX2                !
 ! D151  D(52,47,65,48)       -179.9141         estimate D2E/DX2                !
 ! D152  D(52,47,65,66)          0.0859         estimate D2E/DX2                !
 ! D153  D(45,48,53,59)         -0.5864         estimate D2E/DX2                !
 ! D154  D(45,48,53,60)        179.6084         estimate D2E/DX2                !
 ! D155  D(65,48,53,59)        178.9824         estimate D2E/DX2                !
 ! D156  D(65,48,53,60)         -0.8228         estimate D2E/DX2                !
 ! D157  D(45,48,65,47)         -0.347          estimate D2E/DX2                !
 ! D158  D(45,48,65,66)        179.653          estimate D2E/DX2                !
 ! D159  D(53,48,65,47)       -179.9141         estimate D2E/DX2                !
 ! D160  D(53,48,65,66)          0.0858         estimate D2E/DX2                !
 ! D161  D(45,49,55,59)          0.2468         estimate D2E/DX2                !
 ! D162  D(45,49,55,61)        179.9045         estimate D2E/DX2                !
 ! D163  D(54,49,55,59)       -179.4116         estimate D2E/DX2                !
 ! D164  D(54,49,55,61)          0.2462         estimate D2E/DX2                !
 ! D165  D(46,50,56,52)          0.592          estimate D2E/DX2                !
 ! D166  D(46,50,56,62)       -179.8578         estimate D2E/DX2                !
 ! D167  D(57,50,56,52)       -179.0671         estimate D2E/DX2                !
 ! D168  D(57,50,56,62)          0.4831         estimate D2E/DX2                !
 ! D169  D(47,52,56,50)         -0.4064         estimate D2E/DX2                !
 ! D170  D(47,52,56,62)       -179.9535         estimate D2E/DX2                !
 ! D171  D(58,52,56,50)        179.394          estimate D2E/DX2                !
 ! D172  D(58,52,56,62)         -0.1531         estimate D2E/DX2                !
 ! D173  D(48,53,59,55)         -0.4063         estimate D2E/DX2                !
 ! D174  D(48,53,59,63)       -179.9535         estimate D2E/DX2                !
 ! D175  D(60,53,59,55)        179.394          estimate D2E/DX2                !
 ! D176  D(60,53,59,63)         -0.1531         estimate D2E/DX2                !
 ! D177  D(49,55,59,53)          0.5919         estimate D2E/DX2                !
 ! D178  D(49,55,59,63)       -179.8579         estimate D2E/DX2                !
 ! D179  D(61,55,59,53)       -179.0671         estimate D2E/DX2                !
 ! D180  D(61,55,59,63)          0.4831         estimate D2E/DX2                !
 --------------------------------------------------------------------------------
 Trust Radius=3.00D-01 FncErr=1.00D-07 GrdErr=1.00D-06 EigMax=2.50D+02 EigMin=1.00D-04
 Number of steps in this run=    379 maximum allowed number of steps=    396.
 GradGradGradGradGradGradGradGradGradGradGradGradGradGradGradGradGradGrad

 Leave Link  103 at Fri Aug 15 20:57:35 2025, MaxMem=  7516192768 cpu:               1.2 elap:               0.1
 (Enter /share/apps/softwares/gaussian/16/g16/l202.exe)
 Stoichiometry    C39H27(2)
 Framework group  C1[X(C39H27)]
 Deg. of freedom   192
 Full point group                 C1      NOp   1
 Largest Abelian subgroup         C1      NOp   1
 Largest concise Abelian subgroup C1      NOp   1
                         Standard orientation:                         
 ---------------------------------------------------------------------
 Center     Atomic      Atomic             Coordinates (Angstroms)
 Number     Number       Type             X           Y           Z
 ---------------------------------------------------------------------
      1          6           0        0.580078   -0.000018   -0.000010
      2          6           0        1.305906    0.703677    0.975691
      3          6           0        2.696740    0.702717    0.975852
      4          6           0        3.417104   -0.000007   -0.000005
      5          6           0        2.696750   -0.702738   -0.975865
      6          6           0        1.305916   -0.703708   -0.975709
      7          6           0       -0.896337   -0.000024   -0.000013
      8          6           0       -1.626720    0.039481    1.201972
      9          6           0       -3.012081    0.042642    1.205034
     10          6           0       -3.754490   -0.000019   -0.000016
     11          6           0       -3.012077   -0.042698   -1.205063
     12          6           0       -1.626716   -0.039539   -1.202000
     13          1           0        0.772715    1.277225    1.726967
     14          1           0        3.239144    1.257576    1.735008
     15          1           0        3.239160   -1.257593   -1.735018
     16          1           0        0.772732   -1.277260   -1.726987
     17          1           0       -1.095092    0.027589    2.148194
     18          1           0       -1.095087   -0.027657   -2.148220
     19          6           0       -5.207684   -0.000007   -0.000018
     20          6           0       -5.942321    1.201411    0.389692
     21          6           0       -6.667749    1.254322    1.601840
     22          6           0       -5.958330    2.352129   -0.431191
     23          6           0       -7.364929    2.397961    1.973330
     24          6           0       -6.660770    3.492093   -0.057904
     25          1           0       -5.429787    2.330000   -1.377667
     26          6           0       -7.367377    3.524569    1.146921
     27          1           0       -7.902656    2.414808    2.916664
     28          6           0       -5.942356   -1.201384   -0.389710
     29          6           0       -5.958395   -2.352092    0.431200
     30          6           0       -6.667799   -1.254303   -1.601854
     31          6           0       -6.660882   -3.492036    0.057949
     32          6           0       -7.365032   -2.397921   -1.973299
     33          6           0       -7.367518   -3.524509   -1.146862
     34          1           0       -6.666075   -4.357020    0.714536
     35          1           0       -7.902772   -2.414769   -2.916625
     36          1           0       -7.914016    4.416185    1.437642
     37          1           0       -6.658599    0.390852    2.257569
     38          1           0       -6.665945    4.357091   -0.714475
     39          1           0       -7.914200   -4.416109   -1.437553
     40          1           0       -5.429815   -2.329968    1.377656
     41          1           0       -6.658616   -0.390858   -2.257615
     42          1           0       -3.543187   -0.042398   -2.150102
     43          1           0       -3.543189    0.042314    2.150073
     44          6           0        5.609656   -1.179348    0.334062
     45          6           0        5.609653    1.179344   -0.334061
     46          6           0        4.946095   -2.390356    0.709789
     47          6           0        7.053815   -1.175160    0.325007
     48          6           0        7.053811    1.175163   -0.325000
     49          6           0        4.946088    2.390351   -0.709792
     50          6           0        5.654872   -3.518620    1.026695
     51          1           0        3.863410   -2.400872    0.745786
     52          6           0        7.753693   -2.375198    0.658787
     53          6           0        7.753685    2.375204   -0.658777
     54          1           0        3.863402    2.400860   -0.745792
     55          6           0        5.654861    3.518617   -1.026694
     56          6           0        7.078148   -3.516072    0.995884
     57          1           0        5.128798   -4.425026    1.310289
     58          1           0        8.839881   -2.358046    0.641239
     59          6           0        7.078137    3.516076   -0.995877
     60          1           0        8.839873    2.358056   -0.641224
     61          1           0        5.128784    4.425020   -1.310289
     62          1           0        7.622346   -4.420939    1.248114
     63          1           0        7.622332    4.420945   -1.248104
     64          6           0        4.906376   -0.000003   -0.000002
     65          6           0        7.735491    0.000003    0.000005
     66          1           0        8.822606    0.000005    0.000008
 ---------------------------------------------------------------------
 Rotational constants (GHZ):           0.1972608           0.0316332           0.0286933
 Leave Link  202 at Fri Aug 15 20:57:35 2025, MaxMem=  7516192768 cpu:               1.7 elap:               0.1
 (Enter /share/apps/softwares/gaussian/16/g16/l301.exe)
 Standard basis: 6-31G(d,p) (6D, 7F)
 Ernie: Thresh=  0.10000D-02 Tol=  0.10000D-05 Strict=F.
 There are   720 symmetry adapted cartesian basis functions of A   symmetry.
 There are   720 symmetry adapted basis functions of A   symmetry.
   720 basis functions,  1281 primitive gaussians,   720 cartesian basis functions
   131 alpha electrons      130 beta electrons
       nuclear repulsion energy      3543.9072736498 Hartrees.
 IExCor=  402 DFT=T Ex+Corr=B3LYP ExCW=0 ScaHFX=  0.200000
 ScaDFX=  0.800000  0.720000  1.000000  0.810000 ScalE2=  1.000000  1.000000
 IRadAn=      5 IRanWt=     -1 IRanGd=            0 ICorTp=0 IEmpDi=141
 NAtoms=   66 NActive=   66 NUniq=   66 SFac= 1.00D+00 NAtFMM=   60 NAOKFM=T Big=T
 Integral buffers will be    131072 words long.
 Raffenetti 2 integral format.
 Two-electron integral symmetry is turned on.
 R6Disp:  Grimme-D3(BJ) Dispersion energy=       -0.1704938492 Hartrees.
 Nuclear repulsion after empirical dispersion term =     3543.7367798006 Hartrees.
 Leave Link  301 at Fri Aug 15 20:57:36 2025, MaxMem=  7516192768 cpu:               1.9 elap:               0.1
 (Enter /share/apps/softwares/gaussian/16/g16/l302.exe)
 NPDir=0 NMtPBC=     1 NCelOv=     1 NCel=       1 NClECP=     1 NCelD=      1
         NCelK=      1 NCelE2=     1 NClLst=     1 CellRange=     0.0.
 One-electron integrals computed using PRISM.
 One-electron integral symmetry used in STVInt
 NBasis=   720 RedAO= T EigKep=  1.82D-04  NBF=   720
 NBsUse=   720 1.00D-06 EigRej= -1.00D+00 NBFU=   720
 Precomputing XC quadrature grid using
 IXCGrd= 4 IRadAn=           5 IRanWt=          -1 IRanGd=           0 AccXCQ= 0.00D+00.
 Generated NRdTot=       0 NPtTot=           0 NUsed=           0 NTot=          32
 NSgBfM=   675   675   675   675   675 MxSgAt=    66 MxSgA2=    66.
 Leave Link  302 at Fri Aug 15 20:57:37 2025, MaxMem=  7516192768 cpu:              28.2 elap:               1.2
 (Enter /share/apps/softwares/gaussian/16/g16/l303.exe)
 DipDrv:  MaxL=1.
 Leave Link  303 at Fri Aug 15 20:57:37 2025, MaxMem=  7516192768 cpu:               2.4 elap:               0.2
 (Enter /share/apps/softwares/gaussian/16/g16/l401.exe)
 ExpMin= 1.61D-01 ExpMax= 3.05D+03 ExpMxC= 4.57D+02 IAcc=3 IRadAn=         5 AccDes= 0.00D+00
 Harris functional with IExCor=  402 and IRadAn=       5 diagonalized for initial guess.
 HarFok:  IExCor=  402 AccDes= 0.00D+00 IRadAn=         5 IDoV= 1 UseB2=F ITyADJ=14
 ICtDFT=  3500011 ScaDFX=  1.000000  1.000000  1.000000  1.000000
 FoFCou: FMM=F IPFlag=           0 FMFlag=      100000 FMFlg1=        2001
         NFxFlg=           0 DoJE=T BraDBF=F KetDBF=T FulRan=T
         wScrn=  0.000000 ICntrl=       500 IOpCl=  0 I1Cent=   200000004 NGrid=           0
         NMat0=    1 NMatS0=      1 NMatT0=    0 NMatD0=    1 NMtDS0=    0 NMtDT0=    0
 Petite list used in FoFCou.
 Harris En= -1502.63256908745    
 JPrj=0 DoOrth=F DoCkMO=F.
 Initial guess <Sx>= 0.0000 <Sy>= 0.0000 <Sz>= 0.5000 <S**2>= 0.7500 S= 0.5000
 Leave Link  401 at Fri Aug 15 20:57:41 2025, MaxMem=  7516192768 cpu:              78.0 elap:               3.3
 (Enter /share/apps/softwares/gaussian/16/g16/l502.exe)
 Integral symmetry usage will be decided dynamically.
 UHF open shell SCF:
 Using DIIS extrapolation, IDIIS=  1040.
 NGot=  7516192768 LenX=  7515129813 LenY=  7514610693
 Requested convergence on RMS density matrix=1.00D-08 within 128 cycles.
 Requested convergence on MAX density matrix=1.00D-06.
 Requested convergence on             energy=1.00D-06.
 No special actions if energy rises.
 Fock matrices will be formed incrementally for  20 cycles.
 Integral accuracy reduced to 1.0D-05 until final iterations.

 Cycle   1  Pass 0  IDiag  1:
 FoFJK:  IHMeth= 1 ICntrl=       0 DoSepK=F KAlg= 0 I1Cent=           0 FoldK=F
 IRaf= 670000000 NMat=       1 IRICut=       1 DoRegI=T DoRafI=F ISym2E= 0 IDoP0=0 IntGTp=1.
 FoFCou: FMM=T IPFlag=           0 FMFlag=      100000 FMFlg1=        2001
         NFxFlg=           0 DoJE=F BraDBF=F KetDBF=F FulRan=T
         wScrn=  0.000000 ICntrl=         0 IOpCl=  1 I1Cent=           0 NGrid=           0
         NMat0=    1 NMatS0=      1 NMatT0=    0 NMatD0=    1 NMtDS0=    0 NMtDT0=    0
 Symmetry not used in FoFCou.
 FMM levels:  10  Number of levels for PrismC:   9
 E= -1501.83275908297    
 DIIS: error= 3.83D-02 at cycle   1 NSaved=   1.
 NSaved= 1 IEnMin= 1 EnMin= -1501.83275908297     IErMin= 1 ErrMin= 3.83D-02
 ErrMax= 3.83D-02  0.00D+00 EMaxC= 1.00D-01 BMatC= 2.75D+00 BMatP= 2.75D+00
 IDIUse=3 WtCom= 6.17D-01 WtEn= 3.83D-01
 Coeff-Com:  0.100D+01
 Coeff-En:   0.100D+01
 Coeff:      0.100D+01
 Gap=     0.147 Goal=   None    Shift=    0.000
 Gap=     0.095 Goal=   None    Shift=    0.000
 GapD=    0.095 DampG=0.500 DampE=0.500 DampFc=0.2500 IDamp=-1.
 Damping current iteration by 2.50D-01
 RMSDP=2.91D-03 MaxDP=1.38D-01              OVMax= 1.50D-01

 Cycle   2  Pass 0  IDiag  1:
 RMSU=  6.96D-04    CP:  9.82D-01
 E= -1502.10267574630     Delta-E=       -0.269916663325 Rises=F Damp=T
 DIIS: error= 2.20D-02 at cycle   2 NSaved=   2.
 NSaved= 2 IEnMin= 2 EnMin= -1502.10267574630     IErMin= 2 ErrMin= 2.20D-02
 ErrMax= 2.20D-02  0.00D+00 EMaxC= 1.00D-01 BMatC= 8.80D-01 BMatP= 2.75D+00
 IDIUse=3 WtCom= 7.80D-01 WtEn= 2.20D-01
 Coeff-Com: -0.110D+01 0.210D+01
 Coeff-En:   0.000D+00 0.100D+01
 Coeff:     -0.860D+00 0.186D+01
 Gap=     0.116 Goal=   None    Shift=    0.000
 Gap=     0.130 Goal=   None    Shift=    0.000
 RMSDP=1.32D-03 MaxDP=8.11D-02 DE=-2.70D-01 OVMax= 9.28D-02

 Cycle   3  Pass 0  IDiag  1:
 RMSU=  7.70D-04    CP:  9.43D-01  2.39D+00
 E= -1502.58962637451     Delta-E=       -0.486950628214 Rises=F Damp=F
 DIIS: error= 3.86D-03 at cycle   3 NSaved=   3.
 NSaved= 3 IEnMin= 3 EnMin= -1502.58962637451     IErMin= 3 ErrMin= 3.86D-03
 ErrMax= 3.86D-03  0.00D+00 EMaxC= 1.00D-01 BMatC= 6.25D-02 BMatP= 8.80D-01
 IDIUse=3 WtCom= 9.61D-01 WtEn= 3.86D-02
 Coeff-Com: -0.329D+00 0.659D+00 0.669D+00
 Coeff-En:   0.000D+00 0.000D+00 0.100D+01
 Coeff:     -0.316D+00 0.634D+00 0.682D+00
 Gap=     0.134 Goal=   None    Shift=    0.000
 Gap=     0.124 Goal=   None    Shift=    0.000
 RMSDP=4.37D-04 MaxDP=4.12D-02 DE=-4.87D-01 OVMax= 6.64D-02

 Cycle   4  Pass 0  IDiag  1:
 RMSU=  3.97D-04    CP:  9.45D-01  2.30D+00  7.81D-01
 E= -1502.58925742801     Delta-E=        0.000368946501 Rises=F Damp=F
 DIIS: error= 5.39D-03 at cycle   4 NSaved=   4.
 NSaved= 4 IEnMin= 3 EnMin= -1502.58962637451     IErMin= 3 ErrMin= 3.86D-03
 ErrMax= 5.39D-03  0.00D+00 EMaxC= 1.00D-01 BMatC= 6.04D-02 BMatP= 6.25D-02
 IDIUse=3 WtCom= 9.46D-01 WtEn= 5.39D-02
 Coeff-Com: -0.475D-01 0.120D+00 0.488D+00 0.440D+00
 Coeff-En:   0.000D+00 0.000D+00 0.504D+00 0.496D+00
 Coeff:     -0.450D-01 0.113D+00 0.488D+00 0.443D+00
 Gap=     0.124 Goal=   None    Shift=    0.000
 Gap=     0.123 Goal=   None    Shift=    0.000
 RMSDP=2.56D-04 MaxDP=1.74D-02 DE= 3.69D-04 OVMax= 4.58D-02

 Cycle   5  Pass 0  IDiag  1:
 RMSU=  1.16D-04    CP:  9.45D-01  2.31D+00  8.44D-01  4.40D-01
 E= -1502.60584120480     Delta-E=       -0.016583776791 Rises=F Damp=F
 DIIS: error= 1.39D-03 at cycle   5 NSaved=   5.
 NSaved= 5 IEnMin= 5 EnMin= -1502.60584120480     IErMin= 5 ErrMin= 1.39D-03
 ErrMax= 1.39D-03  0.00D+00 EMaxC= 1.00D-01 BMatC= 4.65D-03 BMatP= 6.04D-02
 IDIUse=3 WtCom= 9.86D-01 WtEn= 1.39D-02
 Coeff-Com:  0.377D-02 0.542D-02 0.221D+00 0.275D+00 0.494D+00
 Coeff-En:   0.000D+00 0.000D+00 0.000D+00 0.346D-01 0.965D+00
 Coeff:      0.372D-02 0.535D-02 0.218D+00 0.272D+00 0.501D+00
 Gap=     0.120 Goal=   None    Shift=    0.000
 Gap=     0.123 Goal=   None    Shift=    0.000
 RMSDP=7.01D-05 MaxDP=4.68D-03 DE=-1.66D-02 OVMax= 1.32D-02

 Cycle   6  Pass 0  IDiag  1:
 RMSU=  4.48D-05    CP:  9.45D-01  2.31D+00  8.50D-01  5.01D-01  5.90D-01
 E= -1502.60698652023     Delta-E=       -0.001145315433 Rises=F Damp=F
 DIIS: error= 6.28D-04 at cycle   6 NSaved=   6.
 NSaved= 6 IEnMin= 6 EnMin= -1502.60698652023     IErMin= 6 ErrMin= 6.28D-04
 ErrMax= 6.28D-04  0.00D+00 EMaxC= 1.00D-01 BMatC= 6.72D-04 BMatP= 4.65D-03
 IDIUse=3 WtCom= 9.94D-01 WtEn= 6.28D-03
 Coeff-Com:  0.688D-02-0.938D-02 0.732D-01 0.114D+00 0.319D+00 0.497D+00
 Coeff-En:   0.000D+00 0.000D+00 0.000D+00 0.000D+00 0.114D+00 0.886D+00
 Coeff:      0.683D-02-0.932D-02 0.728D-01 0.113D+00 0.318D+00 0.499D+00
 Gap=     0.121 Goal=   None    Shift=    0.000
 Gap=     0.123 Goal=   None    Shift=    0.000
 RMSDP=2.64D-05 MaxDP=1.64D-03 DE=-1.15D-03 OVMax= 4.79D-03

 Cycle   7  Pass 0  IDiag  1:
 RMSU=  1.46D-05    CP:  9.44D-01  2.31D+00  8.55D-01  5.08D-01  6.78D-01
                    CP:  5.78D-01
 E= -1502.60716569765     Delta-E=       -0.000179177412 Rises=F Damp=F
 DIIS: error= 1.90D-04 at cycle   7 NSaved=   7.
 NSaved= 7 IEnMin= 7 EnMin= -1502.60716569765     IErMin= 7 ErrMin= 1.90D-04
 ErrMax= 1.90D-04  0.00D+00 EMaxC= 1.00D-01 BMatC= 7.69D-05 BMatP= 6.72D-04
 IDIUse=3 WtCom= 9.98D-01 WtEn= 1.90D-03
 Coeff-Com:  0.405D-02-0.670D-02 0.216D-01 0.415D-01 0.144D+00 0.305D+00
 Coeff-Com:  0.491D+00
 Coeff-En:   0.000D+00 0.000D+00 0.000D+00 0.000D+00 0.000D+00 0.182D-01
 Coeff-En:   0.982D+00
 Coeff:      0.405D-02-0.669D-02 0.216D-01 0.415D-01 0.144D+00 0.304D+00
 Coeff:      0.492D+00
 Gap=     0.121 Goal=   None    Shift=    0.000
 Gap=     0.123 Goal=   None    Shift=    0.000
 RMSDP=9.09D-06 MaxDP=7.90D-04 DE=-1.79D-04 OVMax= 2.03D-03

 Initial convergence to 1.0D-05 achieved.  Increase integral accuracy.
 Cycle   8  Pass 1  IDiag  1:
 E= -1502.60721995721     Delta-E=       -0.000054259563 Rises=F Damp=F
 DIIS: error= 2.58D-04 at cycle   1 NSaved=   1.
 NSaved= 1 IEnMin= 1 EnMin= -1502.60721995721     IErMin= 1 ErrMin= 2.58D-04
 ErrMax= 2.58D-04  0.00D+00 EMaxC= 1.00D-01 BMatC= 5.44D-05 BMatP= 5.44D-05
 IDIUse=3 WtCom= 9.97D-01 WtEn= 2.58D-03
 Coeff-Com:  0.100D+01
 Coeff-En:   0.100D+01
 Coeff:      0.100D+01
 Gap=     0.121 Goal=   None    Shift=    0.000
 Gap=     0.123 Goal=   None    Shift=    0.000
 RMSDP=9.09D-06 MaxDP=7.90D-04 DE=-5.43D-05 OVMax= 2.32D-03

 Cycle   9  Pass 1  IDiag  1:
 RMSU=  8.98D-05    CP:  1.00D+00
 E= -1502.60721869819     Delta-E=        0.000001259018 Rises=F Damp=F
 DIIS: error= 1.95D-04 at cycle   2 NSaved=   2.
 NSaved= 2 IEnMin= 1 EnMin= -1502.60721995721     IErMin= 2 ErrMin= 1.95D-04
 ErrMax= 1.95D-04  0.00D+00 EMaxC= 1.00D-01 BMatC= 5.30D-05 BMatP= 5.44D-05
 IDIUse=3 WtCom= 9.98D-01 WtEn= 1.95D-03
 Coeff-Com:  0.495D+00 0.505D+00
 Coeff-En:   0.531D+00 0.469D+00
 Coeff:      0.495D+00 0.505D+00
 Gap=     0.121 Goal=   None    Shift=    0.000
 Gap=     0.123 Goal=   None    Shift=    0.000
 RMSDP=1.06D-05 MaxDP=1.03D-03 DE= 1.26D-06 OVMax= 3.07D-03

 Cycle  10  Pass 1  IDiag  1:
 RMSU=  1.06D-05    CP:  1.00D+00  9.95D-01
 E= -1502.60722561306     Delta-E=       -0.000006914870 Rises=F Damp=F
 DIIS: error= 1.41D-04 at cycle   3 NSaved=   3.
 NSaved= 3 IEnMin= 3 EnMin= -1502.60722561306     IErMin= 3 ErrMin= 1.41D-04
 ErrMax= 1.41D-04  0.00D+00 EMaxC= 1.00D-01 BMatC= 3.08D-05 BMatP= 5.30D-05
 IDIUse=3 WtCom= 9.99D-01 WtEn= 1.41D-03
 Coeff-Com:  0.441D-02 0.430D+00 0.566D+00
 Coeff-En:   0.000D+00 0.398D+00 0.602D+00
 Coeff:      0.440D-02 0.430D+00 0.566D+00
 Gap=     0.121 Goal=   None    Shift=    0.000
 Gap=     0.123 Goal=   None    Shift=    0.000
 RMSDP=5.28D-06 MaxDP=4.35D-04 DE=-6.91D-06 OVMax= 1.56D-03

 Cycle  11  Pass 1  IDiag  1:
 RMSU=  1.97D-06    CP:  1.00D+00  1.01D+00  5.50D-01
 E= -1502.60723487138     Delta-E=       -0.000009258320 Rises=F Damp=F
 DIIS: error= 3.52D-05 at cycle   4 NSaved=   4.
 NSaved= 4 IEnMin= 4 EnMin= -1502.60723487138     IErMin= 4 ErrMin= 3.52D-05
 ErrMax= 3.52D-05  0.00D+00 EMaxC= 1.00D-01 BMatC= 1.53D-06 BMatP= 3.08D-05
 IDIUse=1 WtCom= 1.00D+00 WtEn= 0.00D+00
 Coeff-Com: -0.151D-01 0.245D+00 0.347D+00 0.423D+00
 Coeff:     -0.151D-01 0.245D+00 0.347D+00 0.423D+00
 Gap=     0.121 Goal=   None    Shift=    0.000
 Gap=     0.123 Goal=   None    Shift=    0.000
 RMSDP=1.14D-06 MaxDP=7.90D-05 DE=-9.26D-06 OVMax= 2.43D-04

 Cycle  12  Pass 1  IDiag  1:
 RMSU=  1.04D-06    CP:  1.00D+00  1.01D+00  5.80D-01  8.31D-01
 E= -1502.60723538991     Delta-E=       -0.000000518529 Rises=F Damp=F
 DIIS: error= 2.03D-05 at cycle   5 NSaved=   5.
 NSaved= 5 IEnMin= 5 EnMin= -1502.60723538991     IErMin= 5 ErrMin= 2.03D-05
 ErrMax= 2.03D-05  0.00D+00 EMaxC= 1.00D-01 BMatC= 2.20D-07 BMatP= 1.53D-06
 IDIUse=1 WtCom= 1.00D+00 WtEn= 0.00D+00
 Coeff-Com: -0.561D-02-0.100D+00-0.126D+00 0.110D+00 0.112D+01
 Coeff:     -0.561D-02-0.100D+00-0.126D+00 0.110D+00 0.112D+01
 Gap=     0.121 Goal=   None    Shift=    0.000
 Gap=     0.123 Goal=   None    Shift=    0.000
 RMSDP=1.22D-06 MaxDP=1.37D-04 DE=-5.19D-07 OVMax= 3.11D-04

 Cycle  13  Pass 1  IDiag  1:
 RMSU=  7.88D-07    CP:  1.00D+00  1.01D+00  5.86D-01  1.27D+00  1.33D+00
 E= -1502.60723564830     Delta-E=       -0.000000258391 Rises=F Damp=F
 DIIS: error= 1.65D-05 at cycle   6 NSaved=   6.
 NSaved= 6 IEnMin= 6 EnMin= -1502.60723564830     IErMin= 6 ErrMin= 1.65D-05
 ErrMax= 1.65D-05  0.00D+00 EMaxC= 1.00D-01 BMatC= 3.00D-07 BMatP= 2.20D-07
 IDIUse=1 WtCom= 1.00D+00 WtEn= 0.00D+00
 Coeff-Com:  0.278D-02-0.237D+00-0.320D+00-0.130D+00 0.111D+01 0.578D+00
 Coeff:      0.278D-02-0.237D+00-0.320D+00-0.130D+00 0.111D+01 0.578D+00
 Gap=     0.121 Goal=   None    Shift=    0.000
 Gap=     0.123 Goal=   None    Shift=    0.000
 RMSDP=9.87D-07 MaxDP=1.24D-04 DE=-2.58D-07 OVMax= 2.69D-04

 Cycle  14  Pass 1  IDiag  1:
 RMSU=  3.50D-07    CP:  1.00D+00  1.01D+00  5.90D-01  1.57D+00  1.97D+00
                    CP:  7.45D-01
 E= -1502.60723584173     Delta-E=       -0.000000193433 Rises=F Damp=F
 DIIS: error= 5.60D-06 at cycle   7 NSaved=   7.
 NSaved= 7 IEnMin= 7 EnMin= -1502.60723584173     IErMin= 7 ErrMin= 5.60D-06
 ErrMax= 5.60D-06  0.00D+00 EMaxC= 1.00D-01 BMatC= 2.35D-08 BMatP= 2.20D-07
 IDIUse=1 WtCom= 1.00D+00 WtEn= 0.00D+00
 Coeff-Com:  0.241D-02-0.974D-01-0.133D+00-0.876D-01 0.332D+00 0.283D+00
 Coeff-Com:  0.700D+00
 Coeff:      0.241D-02-0.974D-01-0.133D+00-0.876D-01 0.332D+00 0.283D+00
 Coeff:      0.700D+00
 Gap=     0.121 Goal=   None    Shift=    0.000
 Gap=     0.123 Goal=   None    Shift=    0.000
 RMSDP=3.27D-07 MaxDP=3.93D-05 DE=-1.93D-07 OVMax= 8.13D-05

 Cycle  15  Pass 1  IDiag  1:
 RMSU=  1.76D-07    CP:  1.00D+00  1.01D+00  5.92D-01  1.66D+00  2.13D+00
                    CP:  9.25D-01  1.07D+00
 E= -1502.60723586236     Delta-E=       -0.000000020624 Rises=F Damp=F
 DIIS: error= 3.57D-06 at cycle   8 NSaved=   8.
 NSaved= 8 IEnMin= 8 EnMin= -1502.60723586236     IErMin= 8 ErrMin= 3.57D-06
 ErrMax= 3.57D-06  0.00D+00 EMaxC= 1.00D-01 BMatC= 9.31D-09 BMatP= 2.35D-08
 IDIUse=1 WtCom= 1.00D+00 WtEn= 0.00D+00
 Coeff-Com:  0.618D-03 0.148D-01 0.193D-01-0.145D-01-0.152D+00-0.597D-03
 Coeff-Com:  0.430D+00 0.702D+00
 Coeff:      0.618D-03 0.148D-01 0.193D-01-0.145D-01-0.152D+00-0.597D-03
 Coeff:      0.430D+00 0.702D+00
 Gap=     0.121 Goal=   None    Shift=    0.000
 Gap=     0.123 Goal=   None    Shift=    0.000
 RMSDP=1.98D-07 MaxDP=2.35D-05 DE=-2.06D-08 OVMax= 5.70D-05

 Cycle  16  Pass 1  IDiag  1:
 RMSU=  1.01D-07    CP:  1.00D+00  1.01D+00  5.94D-01  1.70D+00  2.21D+00
                    CP:  1.01D+00  1.35D+00  8.48D-01
 E= -1502.60723586911     Delta-E=       -0.000000006748 Rises=F Damp=F
 DIIS: error= 1.83D-06 at cycle   9 NSaved=   9.
 NSaved= 9 IEnMin= 9 EnMin= -1502.60723586911     IErMin= 9 ErrMin= 1.83D-06
 ErrMax= 1.83D-06  0.00D+00 EMaxC= 1.00D-01 BMatC= 3.22D-09 BMatP= 9.31D-09
 IDIUse=1 WtCom= 1.00D+00 WtEn= 0.00D+00
 Coeff-Com: -0.661D-03 0.536D-01 0.727D-01 0.285D-01-0.257D+00-0.122D+00
 Coeff-Com: -0.179D-01 0.488D+00 0.755D+00
 Coeff:     -0.661D-03 0.536D-01 0.727D-01 0.285D-01-0.257D+00-0.122D+00
 Coeff:     -0.179D-01 0.488D+00 0.755D+00
 Gap=     0.121 Goal=   None    Shift=    0.000
 Gap=     0.123 Goal=   None    Shift=    0.000
 RMSDP=1.25D-07 MaxDP=1.41D-05 DE=-6.75D-09 OVMax= 3.05D-05

 Cycle  17  Pass 1  IDiag  1:
 RMSU=  3.86D-08    CP:  1.00D+00  1.01D+00  5.95D-01  1.72D+00  2.25D+00
                    CP:  1.08D+00  1.50D+00  1.15D+00  8.48D-01
 E= -1502.60723587115     Delta-E=       -0.000000002046 Rises=F Damp=F
 DIIS: error= 3.12D-07 at cycle  10 NSaved=  10.
 NSaved=10 IEnMin=10 EnMin= -1502.60723587115     IErMin=10 ErrMin= 3.12D-07
 ErrMax= 3.12D-07  0.00D+00 EMaxC= 1.00D-01 BMatC= 3.20D-10 BMatP= 3.22D-09
 IDIUse=1 WtCom= 1.00D+00 WtEn= 0.00D+00
 Coeff-Com: -0.400D-03 0.263D-01 0.358D-01 0.161D-01-0.119D+00-0.639D-01
 Coeff-Com: -0.503D-01 0.192D+00 0.398D+00 0.565D+00
 Coeff:     -0.400D-03 0.263D-01 0.358D-01 0.161D-01-0.119D+00-0.639D-01
 Coeff:     -0.503D-01 0.192D+00 0.398D+00 0.565D+00
 Gap=     0.121 Goal=   None    Shift=    0.000
 Gap=     0.123 Goal=   None    Shift=    0.000
 RMSDP=2.08D-08 MaxDP=1.78D-06 DE=-2.05D-09 OVMax= 4.89D-06

 Cycle  18  Pass 1  IDiag  1:
 RMSU=  1.51D-08    CP:  1.00D+00  1.01D+00  5.95D-01  1.73D+00  2.26D+00
                    CP:  1.09D+00  1.52D+00  1.17D+00  9.11D-01  9.13D-01
 E= -1502.60723587127     Delta-E=       -0.000000000115 Rises=F Damp=F
 DIIS: error= 1.66D-07 at cycle  11 NSaved=  11.
 NSaved=11 IEnMin=11 EnMin= -1502.60723587127     IErMin=11 ErrMin= 1.66D-07
 ErrMax= 1.66D-07  0.00D+00 EMaxC= 1.00D-01 BMatC= 4.06D-11 BMatP= 3.20D-10
 IDIUse=1 WtCom= 1.00D+00 WtEn= 0.00D+00
 Coeff-Com: -0.904D-04 0.479D-02 0.651D-02 0.345D-02-0.196D-01-0.129D-01
 Coeff-Com: -0.191D-01 0.238D-01 0.797D-01 0.244D+00 0.689D+00
 Coeff:     -0.904D-04 0.479D-02 0.651D-02 0.345D-02-0.196D-01-0.129D-01
 Coeff:     -0.191D-01 0.238D-01 0.797D-01 0.244D+00 0.689D+00
 Gap=     0.121 Goal=   None    Shift=    0.000
 Gap=     0.123 Goal=   None    Shift=    0.000
 RMSDP=9.56D-09 MaxDP=8.33D-07 DE=-1.15D-10 OVMax= 2.16D-06

 SCF Done:  E(UB3LYP) =  -1502.60723587     A.U. after   18 cycles
            NFock= 18  Conv=0.96D-08     -V/T= 2.0098
 <Sx>= 0.0000 <Sy>= 0.0000 <Sz>= 0.5000 <S**2>= 0.7575 S= 0.5037
 <L.S>=  0.00000000000    
 KE= 1.488001683539D+03 PE=-1.056643508813D+04 EE= 4.032089388923D+03
 Annihilation of the first spin contaminant:
 S**2 before annihilation     0.7575,   after     0.7501
 Leave Link  502 at Fri Aug 15 21:00:06 2025, MaxMem=  7516192768 cpu:            3461.8 elap:             144.7
 (Enter /share/apps/softwares/gaussian/16/g16/l601.exe)
 Copying SCF densities to generalized density rwf, IOpCl= 1 IROHF=0.

 **********************************************************************

            Population analysis using the SCF Density.

 **********************************************************************

 Orbital symmetries:
 Alpha Orbitals:
       Occupied  (A) (A) (A) (A) (A) (A) (A) (A) (A) (A) (A) (A)
                 (A) (A) (A) (A) (A) (A) (A) (A) (A) (A) (A) (A)
                 (A) (A) (A) (A) (A) (A) (A) (A) (A) (A) (A) (A)
                 (A) (A) (A) (A) (A) (A) (A) (A) (A) (A) (A) (A)
                 (A) (A) (A) (A) (A) (A) (A) (A) (A) (A) (A) (A)
                 (A) (A) (A) (A) (A) (A) (A) (A) (A) (A) (A) (A)
                 (A) (A) (A) (A) (A) (A) (A) (A) (A) (A) (A) (A)
                 (A) (A) (A) (A) (A) (A) (A) (A) (A) (A) (A) (A)
                 (A) (A) (A) (A) (A) (A) (A) (A) (A) (A) (A) (A)
                 (A) (A) (A) (A) (A) (A) (A) (A) (A) (A) (A) (A)
                 (A) (A) (A) (A) (A) (A) (A) (A) (A) (A) (A)
       Virtual   (A) (A) (A) (A) (A) (A) (A) (A) (A) (A) (A) (A)
                 (A) (A) (A) (A) (A) (A) (A) (A) (A) (A) (A) (A)
                 (A) (A) (A) (A) (A) (A) (A) (A) (A) (A) (A) (A)
                 (A) (A) (A) (A) (A) (A) (A) (A) (A) (A) (A) (A)
                 (A) (A) (A) (A) (A) (A) (A) (A) (A) (A) (A) (A)
                 (A) (A) (A) (A) (A) (A) (A) (A) (A) (A) (A) (A)
                 (A) (A) (A) (A) (A) (A) (A) (A) (A) (A) (A) (A)
                 (A) (A) (A) (A) (A) (A) (A) (A) (A) (A) (A) (A)
                 (A) (A) (A) (A) (A) (A) (A) (A) (A) (A) (A) (A)
                 (A) (A) (A) (A) (A) (A) (A) (A) (A) (A) (A) (A)
                 (A) (A) (A) (A) (A) (A) (A) (A) (A) (A) (A) (A)
                 (A) (A) (A) (A) (A) (A) (A) (A) (A) (A) (A) (A)
                 (A) (A) (A) (A) (A) (A) (A) (A) (A) (A) (A) (A)
                 (A) (A) (A) (A) (A) (A) (A) (A) (A) (A) (A) (A)
                 (A) (A) (A) (A) (A) (A) (A) (A) (A) (A) (A) (A)
                 (A) (A) (A) (A) (A) (A) (A) (A) (A) (A) (A) (A)
                 (A) (A) (A) (A) (A) (A) (A) (A) (A) (A) (A) (A)
                 (A) (A) (A) (A) (A) (A) (A) (A) (A) (A) (A) (A)
                 (A) (A) (A) (A) (A) (A) (A) (A) (A) (A) (A) (A)
                 (A) (A) (A) (A) (A) (A) (A) (A) (A) (A) (A) (A)
                 (A) (A) (A) (A) (A) (A) (A) (A) (A) (A) (A) (A)
                 (A) (A) (A) (A) (A) (A) (A) (A) (A) (A) (A) (A)
                 (A) (A) (A) (A) (A) (A) (A) (A) (A) (A) (A) (A)
                 (A) (A) (A) (A) (A) (A) (A) (A) (A) (A) (A) (A)
                 (A) (A) (A) (A) (A) (A) (A) (A) (A) (A) (A) (A)
                 (A) (A) (A) (A) (A) (A) (A) (A) (A) (A) (A) (A)
                 (A) (A) (A) (A) (A) (A) (A) (A) (A) (A) (A) (A)
                 (A) (A) (A) (A) (A) (A) (A) (A) (A) (A) (A) (A)
                 (A) (A) (A) (A) (A) (A) (A) (A) (A) (A) (A) (A)
                 (A) (A) (A) (A) (A) (A) (A) (A) (A) (A) (A) (A)
                 (A) (A) (A) (A) (A) (A) (A) (A) (A) (A) (A) (A)
                 (A) (A) (A) (A) (A) (A) (A) (A) (A) (A) (A) (A)
                 (A) (A) (A) (A) (A) (A) (A) (A) (A) (A) (A) (A)
                 (A) (A) (A) (A) (A) (A) (A) (A) (A) (A) (A) (A)
                 (A) (A) (A) (A) (A) (A) (A) (A) (A) (A) (A) (A)
                 (A) (A) (A) (A) (A) (A) (A) (A) (A) (A) (A) (A)
                 (A) (A) (A) (A) (A) (A) (A) (A) (A) (A) (A) (A)
                 (A) (A) (A) (A) (A) (A) (A) (A) (A) (A) (A) (A)
                 (A) (A) (A) (A) (A) (A) (A) (A) (A) (A) (A) (A)
                 (A) (A) (A) (A) (A) (A) (A) (A) (A) (A) (A) (A)
                 (A) (A) (A) (A) (A) (A) (A) (A) (A) (A) (A) (A)
                 (A) (A) (A) (A) (A) (A) (A) (A) (A) (A) (A) (A)
                 (A) (A) (A) (A) (A) (A) (A) (A) (A) (A) (A) (A)
                 (A) (A) (A) (A) (A) (A) (A) (A) (A) (A) (A) (A)
                 (A) (A) (A) (A) (A) (A) (A) (A) (A) (A) (A) (A)
                 (A) (A) (A) (A) (A) (A) (A) (A) (A) (A) (A) (A)
                 (A) (A) (A) (A) (A) (A) (A) (A) (A) (A) (A) (A)
                 (A) (A) (A) (A) (A) (A) (A) (A) (A) (A) (A) (A)
                 (A) (A) (A) (A) (A) (A) (A) (A) (A) (A) (A) (A)
                 (A)
 Beta  Orbitals:
       Occupied  (A) (A) (A) (A) (A) (A) (A) (A) (A) (A) (A) (A)
                 (A) (A) (A) (A) (A) (A) (A) (A) (A) (A) (A) (A)
                 (A) (A) (A) (A) (A) (A) (A) (A) (A) (A) (A) (A)
                 (A) (A) (A) (A) (A) (A) (A) (A) (A) (A) (A) (A)
                 (A) (A) (A) (A) (A) (A) (A) (A) (A) (A) (A) (A)
                 (A) (A) (A) (A) (A) (A) (A) (A) (A) (A) (A) (A)
                 (A) (A) (A) (A) (A) (A) (A) (A) (A) (A) (A) (A)
                 (A) (A) (A) (A) (A) (A) (A) (A) (A) (A) (A) (A)
                 (A) (A) (A) (A) (A) (A) (A) (A) (A) (A) (A) (A)
                 (A) (A) (A) (A) (A) (A) (A) (A) (A) (A) (A) (A)
                 (A) (A) (A) (A) (A) (A) (A) (A) (A) (A)
       Virtual   (A) (A) (A) (A) (A) (A) (A) (A) (A) (A) (A) (A)
                 (A) (A) (A) (A) (A) (A) (A) (A) (A) (A) (A) (A)
                 (A) (A) (A) (A) (A) (A) (A) (A) (A) (A) (A) (A)
                 (A) (A) (A) (A) (A) (A) (A) (A) (A) (A) (A) (A)
                 (A) (A) (A) (A) (A) (A) (A) (A) (A) (A) (A) (A)
                 (A) (A) (A) (A) (A) (A) (A) (A) (A) (A) (A) (A)
                 (A) (A) (A) (A) (A) (A) (A) (A) (A) (A) (A) (A)
                 (A) (A) (A) (A) (A) (A) (A) (A) (A) (A) (A) (A)
                 (A) (A) (A) (A) (A) (A) (A) (A) (A) (A) (A) (A)
                 (A) (A) (A) (A) (A) (A) (A) (A) (A) (A) (A) (A)
                 (A) (A) (A) (A) (A) (A) (A) (A) (A) (A) (A) (A)
                 (A) (A) (A) (A) (A) (A) (A) (A) (A) (A) (A) (A)
                 (A) (A) (A) (A) (A) (A) (A) (A) (A) (A) (A) (A)
                 (A) (A) (A) (A) (A) (A) (A) (A) (A) (A) (A) (A)
                 (A) (A) (A) (A) (A) (A) (A) (A) (A) (A) (A) (A)
                 (A) (A) (A) (A) (A) (A) (A) (A) (A) (A) (A) (A)
                 (A) (A) (A) (A) (A) (A) (A) (A) (A) (A) (A) (A)
                 (A) (A) (A) (A) (A) (A) (A) (A) (A) (A) (A) (A)
                 (A) (A) (A) (A) (A) (A) (A) (A) (A) (A) (A) (A)
                 (A) (A) (A) (A) (A) (A) (A) (A) (A) (A) (A) (A)
                 (A) (A) (A) (A) (A) (A) (A) (A) (A) (A) (A) (A)
                 (A) (A) (A) (A) (A) (A) (A) (A) (A) (A) (A) (A)
                 (A) (A) (A) (A) (A) (A) (A) (A) (A) (A) (A) (A)
                 (A) (A) (A) (A) (A) (A) (A) (A) (A) (A) (A) (A)
                 (A) (A) (A) (A) (A) (A) (A) (A) (A) (A) (A) (A)
                 (A) (A) (A) (A) (A) (A) (A) (A) (A) (A) (A) (A)
                 (A) (A) (A) (A) (A) (A) (A) (A) (A) (A) (A) (A)
                 (A) (A) (A) (A) (A) (A) (A) (A) (A) (A) (A) (A)
                 (A) (A) (A) (A) (A) (A) (A) (A) (A) (A) (A) (A)
                 (A) (A) (A) (A) (A) (A) (A) (A) (A) (A) (A) (A)
                 (A) (A) (A) (A) (A) (A) (A) (A) (A) (A) (A) (A)
                 (A) (A) (A) (A) (A) (A) (A) (A) (A) (A) (A) (A)
                 (A) (A) (A) (A) (A) (A) (A) (A) (A) (A) (A) (A)
                 (A) (A) (A) (A) (A) (A) (A) (A) (A) (A) (A) (A)
                 (A) (A) (A) (A) (A) (A) (A) (A) (A) (A) (A) (A)
                 (A) (A) (A) (A) (A) (A) (A) (A) (A) (A) (A) (A)
                 (A) (A) (A) (A) (A) (A) (A) (A) (A) (A) (A) (A)
                 (A) (A) (A) (A) (A) (A) (A) (A) (A) (A) (A) (A)
                 (A) (A) (A) (A) (A) (A) (A) (A) (A) (A) (A) (A)
                 (A) (A) (A) (A) (A) (A) (A) (A) (A) (A) (A) (A)
                 (A) (A) (A) (A) (A) (A) (A) (A) (A) (A) (A) (A)
                 (A) (A) (A) (A) (A) (A) (A) (A) (A) (A) (A) (A)
                 (A) (A) (A) (A) (A) (A) (A) (A) (A) (A) (A) (A)
                 (A) (A) (A) (A) (A) (A) (A) (A) (A) (A) (A) (A)
                 (A) (A) (A) (A) (A) (A) (A) (A) (A) (A) (A) (A)
                 (A) (A) (A) (A) (A) (A) (A) (A) (A) (A) (A) (A)
                 (A) (A) (A) (A) (A) (A) (A) (A) (A) (A) (A) (A)
                 (A) (A) (A) (A) (A) (A) (A) (A) (A) (A) (A) (A)
                 (A) (A) (A) (A) (A) (A) (A) (A) (A) (A) (A) (A)
                 (A) (A)
 The electronic state is 2-A.
 Alpha  occ. eigenvalues --  -10.19998 -10.19988 -10.19921 -10.19900 -10.19825
 Alpha  occ. eigenvalues --  -10.19804 -10.19799 -10.19764 -10.19728 -10.19715
 Alpha  occ. eigenvalues --  -10.19564 -10.19562 -10.19081 -10.19079 -10.19074
 Alpha  occ. eigenvalues --  -10.19072 -10.19021 -10.19020 -10.18924 -10.18923
 Alpha  occ. eigenvalues --  -10.18912 -10.18911 -10.18909 -10.18909 -10.18890
[...]
 25,0.00000144,-0.00000139,0.00000191,-0.00000300,-0.00000063,0.0000019
 5,-0.00000045,-0.00000081,-0.00000027,-0.00000113,0.00000019,-0.000000
 64,0.00000053,0.00000107,0.00000013,-0.00000010,0.00000089,-0.00000041
 ,0.00000043,-0.00000088,0.00000055,-0.00000089,0.00000073,-0.00000188,
 0.00000143,0.00000088,0.00000008,0.00000100,-0.00000751,-0.00001212,-0
 .00000250,0.00000094,-0.00001581,0.00000080,-0.07457561,-0.21438471,-0
 .02780562,0.06678097,-0.23181818,-0.03411212,-0.01510608,-0.06669046,-
 0.01370352,-0.04221535,0.03732871,0.00759869,0.04880674,0.02933496,0.0
 0447780,0.00506668,-0.06756217,-0.01424548,0.02822847,0.01194607,0.000
 68433,-0.00114611,0.00088088,0.00036178,0.00089071,-0.01465269,-0.0036
 9439,-0.00209748,-0.01434435,-0.00356585,0.00131480,0.00079075,0.00028
 871,-0.02671220,0.01573982,0.00239944,-0.01888058,0.00908227,0.0025698
 3,-0.00027054,-0.00051548,-0.00028298,0.00077937,0.00043830,0.00002213
 ,0.02025554,0.00704561,0.00150047,-0.00065577,0.00035549,0.00003014,0.
 00012477,-0.00039835,-0.00026415,-0.00027172,0.00022570,0.00020008,0.0
 0028952,0.00019360,0.00018361,0.00199564,0.62452509,0.00001057,0.00010
 899,-0.00146026,0.00199659,0.00473675,-0.00141209,0.02446926,-0.001011
 10,0.00394305,0.00441512,0.00512837,-0.07348955,-0.02281571,0.00106062
 ,0.00561306,-0.00170944,0.00489162,-0.00124195,-0.00004056,-0.00056818
 ,0.00009817,0.00011970,-0.00000858,-0.00008207,-0.00016570,-0.00000438
 ,-0.00003922,0.00000945,0.00001718,0.00014164,0.00015185,-0.00001853,-
 0.00003694,-0.00012565,-0.00001009,-0.00005338,0.00103787,-0.00004595,
 0.00010473,0.00032655,-0.00220239,-0.00014505,-0.00063124,-0.00209020,
 -0.00019505,-0.00102915,0.00008454,0.00016497,0.00000296,0.00004035,0.
 00002874,0.00000601,0.00003873,0.00003044,-0.00000192,0.00001266,0.000
 00463,0.00000268,0.00000589,-0.00000566,-0.00000008,-0.00000296,0.0000
 0014,-0.00000095,-0.00000268,0.00000123,0.00000058,-0.00000060,0.00000
 052,0.00000182,0.00000029,0.00000073,-0.00000101,0.00000139,-0.0000003
 8,-0.00000007,-0.00000145,0.00000205,-0.00000130,-0.00000026,0.0000008
 6,-0.00000254,-0.00000266,0.00000295,-0.00000085,0.00000058,0.00000079
 ,-0.00000147,0.00000232,-0.00000063,-0.00000085,-0.00000071,0.00000062
 ,-0.00000049,-0.00000089,0.00000101,-0.00000049,0.00000011,0.00000109,
 0.00000121,-0.00000063,-0.00000054,0.00000040,-0.00000006,-0.00000062,
 -0.00000133,-0.00000084,0.00000016,-0.00000010,0.00000055,-0.00000122,
 -0.00000091,-0.00000113,-0.00000086,0.00000075,-0.00000012,-0.00000042
 ,0.00000126,-0.00000061,-0.00000142,0.00000009,-0.00000040,-0.00000120
 ,0.00000144,-0.00000697,-0.00000087,-0.00000519,-0.00000868,0.00000131
 ,-0.01355403,-0.02699620,-0.06523180,0.01588307,-0.03363493,-0.0672615
 5,-0.00371836,-0.01413381,0.00023301,-0.00735997,0.00683394,0.00471423
 ,0.00957209,0.00434567,0.00395659,0.00117149,-0.01430722,0.00010765,0.
 00593690,0.00126036,0.00448219,-0.00030930,0.00056693,-0.00211976,0.00
 025887,-0.00366878,0.00323394,-0.00017640,-0.00357334,0.00326976,0.000
 29290,0.00055943,-0.00214072,-0.00552476,0.00229754,0.00489432,-0.0036
 5934,0.00195428,0.00034273,-0.00006508,-0.00024615,0.00036630,0.000162
 89,0.00003643,0.00020529,0.00406349,0.00158392,0.00013876,-0.00011076,
 -0.00003140,0.00019656,0.00002133,-0.00018007,0.00037968,-0.00007597,0
 .00018760,-0.00072540,0.00004749,0.00018018,-0.00072905,-0.00827421,0.
 07626650,0.18277398,0.00005124,-0.00001094,0.00001397,-0.00012065,-0.0
 0013770,-0.00000081,-0.00024858,0.00037210,-0.00021221,-0.00022913,-0.
 00002766,-0.00000318,-0.00028927,-0.00030978,0.00023911,-0.00007303,0.
 00015605,-0.00001352,0.00001969,-0.00000017,-0.00000114,-0.00002826,0.
 00001475,-0.00002256,-0.00000695,-0.00000676,-0.00001351,-0.00000696,0
 .00001230,-0.00000251,-0.00000655,0.00000195,0.00001266,-0.00002634,-0
 .00001277,0.00002486,-0.00006442,-0.00001849,-0.00000017,0.00006447,0.
 00005129,-0.00000222,0.00004804,-0.00004733,-0.00001254,-0.00006182,0.
 00001907,-0.00000007,0.00000843,-0.00000496,-0.00000707,0.00000884,0.0
 0000504,0.00000644,0.00000446,0.00000658,0.00001381,-0.00000351,0.0000
 1111,-0.00001415,-0.00000216,-0.00001037,-0.00000215,-0.00000710,-0.00
 000590,0.00000513,0.00000037,-0.00000046,-0.00000017,0.00000147,0.0000
 0363,0.00000061,0.00000169,0.00000453,0.00000158,-0.00000111,-0.000002
 12,0.00000220,-0.00000118,-0.00000103,0.00000225,0.00000325,-0.0000159
 4,0.00001004,-0.00000681,0.00000234,-0.00000398,-0.00000231,0.00001012
 ,-0.00000430,0.00000163,-0.00000541,0.00000141,-0.00000089,0.00000160,
 0.00000204,-0.00000259,0.00000122,-0.00000500,-0.00000033,0.00000259,-
 0.00000091,-0.00000160,-0.00000037,-0.00000243,-0.00000129,-0.00000166
 ,0.00000130,0.00000167,0.00000070,-0.00000164,-0.00000052,-0.00000309,
 -0.00000037,-0.00000118,0.00000077,-0.00000167,0.00000208,-0.00000418,
 0.00000013,0.00000134,-0.00000037,0.00000063,-0.00000686,0.00000093,-0
 .00000424,-0.00000792,0.00000043,0.00000492,-0.01995138,0.03107423,0.0
 0654210,-0.02892407,-0.02455214,-0.00422374,-0.00555345,-0.00169387,-0
 .00012766,-0.16991427,0.10977643,0.02261978,-0.19370704,-0.11966338,-0
 .02024313,-0.00516346,0.00055623,0.00022138,-0.00203627,-0.00015591,0.
 00004815,-0.00063729,0.00153332,0.00037161,0.01655029,-0.01294059,-0.0
 0275956,0.01642052,0.00251007,0.00035609,-0.00074655,-0.00139770,-0.00
 031643,-0.00432114,0.00142707,0.00025898,-0.00171828,-0.00627446,-0.00
 110737,0.00018887,0.00004885,-0.00000195,0.00070496,-0.00170586,-0.000
 38297,0.00238520,0.00789550,0.00164853,0.00068483,0.00179978,0.0002878
 1,0.00014428,-0.00002939,-0.00003851,0.00066751,-0.00133675,-0.0003073
 4,0.00080120,0.00119670,0.00026401,-0.00055490,-0.00295926,-0.00057048
 ,0.72723318,-0.00000277,-0.00013339,0.00024905,-0.00025953,0.00007090,
 -0.00014013,0.00008451,0.00026063,0.00009693,-0.00002255,-0.00078795,0
 .00030914,-0.00001955,0.00030346,0.00007513,0.00026731,0.00002601,-0.0
 0015407,0.00000020,0.00003109,0.00000673,-0.00000299,0.00000423,0.0000
 0078,0.00000455,-0.00000506,0.00000269,0.00000018,-0.00000109,-0.00000
 397,-0.00000427,-0.00000516,0.00000169,0.00000659,0.00000536,-0.000002
 10,-0.00000654,-0.00005083,-0.00003352,0.00007805,0.00007425,-0.000090
 87,-0.00008020,0.00008828,-0.00008551,0.00000603,-0.00005359,-0.000033
 83,0.00000111,0.00000204,-0.00000083,-0.00000194,0.00000173,-0.0000015
 6,-0.00000060,0.00000086,-0.00000078,-0.00000002,-0.00000141,0.0000013
 3,0.00000020,0.00000083,0.,0.00000050,0.00000077,-0.00000079,-0.000000
 10,0.00000013,-0.00000007,-0.00000040,-0.00000062,-0.00000033,0.000000
 08,-0.00000067,0.00000015,-0.00000005,0.00000042,-0.00000032,0.0000001
 7,0.00000004,-0.00000010,0.00000051,0.00000065,-0.00000012,-0.00000005
 ,-0.00000018,-0.00000050,-0.00000003,-0.00000057,0.00000009,0.00000014
 ,-0.00000007,-0.00000005,0.00000007,0.00000008,-0.00000009,0.00000011,
 0.00000013,-0.00000003,-0.00000022,0.00000026,0.,0.00000012,0.00000002
 ,0.00000020,0.00000038,0.00000021,-0.00000015,-0.00000013,0.00000008,0
 .00000031,0.00000033,0.00000057,0.00000026,-0.00000011,-0.00000002,0.0
 0000002,-0.00000009,0.00000011,0.00000036,0.00000009,0.00000021,0.0000
 0013,0.00000037,-0.00000042,0.00000025,0.00000037,-0.00000040,-0.00000
 032,0.05028810,0.02844942,0.00405689,-0.04375819,0.03660485,0.00729124
 ,-0.00273484,-0.01377460,-0.00353293,0.07938311,-0.26489177,-0.0401593
 7,-0.08930651,-0.24316978,-0.03310239,0.00159713,-0.01413084,-0.003674
 03,0.02046514,0.00666954,0.00069924,-0.00052287,0.00045743,0.00004072,
 0.00367367,-0.07182184,-0.01447238,-0.01409707,-0.07169048,-0.01415406
 ,0.00065571,0.00055263,0.00004532,-0.01920842,0.00874469,0.00179961,-0
 .02637537,0.01615194,0.00326839,0.00034251,0.00021617,0.00008599,0.002
 00327,0.00118023,0.00074834,0.02803075,0.01241262,0.00159769,-0.001905
 03,0.00120269,0.00082024,-0.00032944,0.00025719,0.00010671,0.00009826,
 -0.00040417,-0.00019597,-0.00024047,-0.00052361,-0.00021854,-0.0029527
 7,-0.04989587,-0.00938223,0.00012885,0.67693783,-0.00000227,-0.0000553
 5,0.00007434,-0.00004767,0.00004478,-0.00006832,0.00019347,0.00002009,
 0.00004020,-0.00001278,0.00011872,-0.00090502,-0.00017190,0.00005875,0
 .00003796,0.00005331,0.00003105,-0.00007078,0.00000014,0.00001416,0.00
 000752,-0.00000195,-0.00000261,-0.00000287,-0.00000070,-0.00000108,0.0
 0000123,0.00000002,-0.00000157,0.00000168,0.00000137,-0.00000149,0.000
 00083,0.00000326,-0.00000224,-0.00000422,0.00000581,-0.00000768,-0.000
 00489,0.00003260,0.00001806,-0.00003470,-0.00003540,0.00002446,-0.0000
 3247,-0.00000337,-0.00000819,-0.00000458,0.00000101,0.00000215,0.00000
 038,-0.00000123,0.00000205,-0.00000008,-0.00000042,0.00000189,-0.00000
 032,0.00000088,0.00000019,-0.00000014,0.00000035,-0.00000034,0.0000003
 6,0.00000059,-0.00000010,-0.00000038,0.00000033,0.,0.00000009,0.000000
 25,-0.00000042,0.00000017,-0.00000043,-0.00000013,0.00000011,0.0000002
 9,0.00000006,0.00000031,-0.00000059,0.00000005,0.00000021,-0.00000093,
 0.00000062,-0.00000066,-0.00000009,-0.00000044,0.00000018,-0.00000011,
 -0.00000031,0.00000069,-0.00000025,0.00000046,0.00000035,-0.00000037,-
 0.00000033,-0.00000008,-0.00000014,-0.00000014,0.00000071,0.00000029,-
 0.00000036,-0.00000030,0.00000059,0.00000018,0.00000012,-0.00000040,-0
 .00000023,-0.00000012,-0.00000028,0.00000034,-0.00000026,-0.00000014,0
 .00000025,-0.00000031,0.00000058,-0.00000026,0.00000012,0.00000021,0.0
 0000032,-0.00000018,-0.00000001,0.00000002,-0.00000062,0.00000135,-0.0
 0000004,0.00000031,-0.00000102,0.00000002,0.00000018,0.01032498,0.0041
 1843,0.00558842,-0.00802034,0.00668039,0.00640660,-0.00032703,-0.00354
 473,0.00336052,0.01643452,-0.03989569,-0.06840634,-0.01398698,-0.03182
 082,-0.06633835,0.00042025,-0.00364917,0.00332854,0.00396830,0.0013170
 3,-0.00024757,-0.00007451,0.00005548,0.00021169,0.00040706,-0.01429570
 ,0.00156757,-0.00282655,-0.01456061,0.00156675,0.00013550,0.00012605,0
 .00022488,-0.00363319,0.00169012,-0.00003892,-0.00486513,0.00226363,0.
 00537812,0.00003466,0.00020636,-0.00074624,0.00026627,0.00076714,-0.00
 251853,0.00533482,0.00130609,0.00501387,-0.00036457,0.00070503,-0.0025
 2003,-0.00006265,0.00021412,-0.00074261,0.00001652,-0.00013477,0.00036
 115,-0.00005638,-0.00020204,0.00034712,-0.00057814,-0.00956955,-0.0024
 2976,-0.01060947,0.10295017,0.14628197,0.00000932,-0.00000058,-0.00000
 054,-0.00000032,0.00001715,-0.00000006,-0.00002281,0.00000122,-0.00002
 135,0.00000234,0.00001543,-0.00001735,-0.00002877,0.00000199,0.0000260
 4,-0.00000312,-0.00001577,-0.00000185,0.00002857,-0.00000167,-0.000001
 49,-0.00001482,0.00000403,-0.00000137,-0.00000055,-0.00000441,-0.00000
 455,-0.00000272,0.00000600,-0.00000049,-0.00000050,0.00000197,0.000003
 56,-0.00001404,-0.00000325,0.00000271,-0.00000719,-0.00000401,0.000004
 17,0.00000498,-0.00000318,-0.00001212,0.00000526,0.00000239,0.00001073
 ,-0.00000771,0.00000459,-0.00000394,0.00000356,-0.00000070,-0.00000487
 ,0.00000374,0.00000058,0.00000475,0.00000538,0.00000289,0.00000606,-0.
 00000233,0.00000580,-0.00000627,-0.00000171,-0.00000516,-0.00000094,-0
 .00000363,-0.00000281,0.00000120,0.00000012,-0.00000026,-0.00000081,-0
 .00000017,0.00000147,0.00000012,0.00000132,0.00000191,0.00000168,-0.00
 000078,-0.00000025,0.00000056,-0.00000047,-0.00000036,0.00000174,0.000
 00147,-0.00000851,0.00000478,-0.00000338,0.00000167,-0.00000096,-0.000
 00190,0.00000508,-0.00000218,0.00000008,-0.00000286,0.00000059,-0.0000
 0055,0.00000114,0.00000166,-0.00000133,0.00000038,-0.00000187,0.000000
 54,0.00000125,-0.00000041,-0.00000068,-0.00000061,-0.00000165,-0.00000
 027,-0.00000126,0.00000092,0.00000133,0.00000049,-0.00000067,0.0000007
 0,-0.00000108,0.,-0.00000052,0.00000065,-0.00000139,0.00000141,-0.0000
 0231,-0.00000059,0.00000123,-0.00000024,0.00000024,-0.00000219,0.00000
 009,-0.00000229,-0.00000276,0.00000066,0.00000246,0.00134669,0.0025478
 1,0.00055635,0.00088418,-0.00324322,-0.00051349,-0.00077736,-0.0006309
 4,-0.00010788,-0.01171655,-0.00097875,0.00009995,-0.01475580,0.0028115
 5,0.00082829,-0.00086254,0.00076128,0.00016386,0.00024611,0.00006562,-
 0.00000578,-0.00009206,0.00024821,0.00006564,0.00070204,-0.00198667,-0
 .00047146,0.00071953,0.00208197,0.00032858,-0.00014733,-0.00028455,-0.
 00006099,0.00021724,-0.00006841,-0.00000933,0.00001358,0.00033404,0.00
 006898,0.00005077,0.00003601,0.00000555,0.00060095,0.00078062,0.000142
 31,0.00003179,-0.00031472,-0.00007051,0.00060397,-0.00089112,-0.000173
 27,0.00005412,-0.00004471,-0.00000715,-0.00000843,0.00006452,0.0000192
 4,-0.00001495,-0.00006602,-0.00000969,0.00036777,-0.00006763,-0.000031
 05,-0.33156208,0.01471469,0.00804783,0.35415221,-0.00000052,-0.0000040
 7,0.00000792,-0.00000448,-0.00000905,-0.00000879,-0.00001544,0.,-0.000
 00219,0.00001552,0.00014579,0.00027639,0.00001791,-0.00000185,-0.00000
 572,0.00000332,-0.00000771,-0.00000890,-0.00000139,0.00000325,0.000000
 03,-0.00000028,0.00000036,-0.00000072,0.00000073,0.00000037,0.00000093
 ,0.00000006,-0.00000055,-0.00000061,-0.00000057,0.00000010,0.00000052,
 0.00000192,0.00000066,-0.00000105,-0.00000125,-0.00000243,-0.00000246,
 0.00000239,0.00000524,-0.00001022,-0.00000301,0.00000527,-0.00001128,0
 .00000162,-0.00000305,-0.00000211,-0.00000021,-0.00000060,0.00000073,-
 0.00000022,-0.00000064,0.00000023,-0.00000035,-0.00000004,-0.00000019,
 0.00000014,-0.00000040,0.00000035,0.00000015,0.00000023,0.00000009,0.0
 0000027,0.00000014,-0.00000031,0.00000002,0.,0.00000009,-0.00000005,-0
 .00000008,0.00000003,-0.00000005,-0.00000017,0.00000004,0.00000010,0.0
 0000010,-0.00000007,-0.00000005,0.00000005,-0.00000005,-0.00000009,0.0
 0000046,-0.00000026,0.00000008,-0.00000024,-0.00000009,0.00000005,-0.0
 0000028,0.00000019,0.00000002,0.00000027,0.00000002,0.00000001,-0.0000
 0006,-0.00000004,0.00000003,-0.00000003,0.00000013,-0.00000004,-0.0000
 0009,-0.00000003,0.00000010,0.00000006,0.00000009,-0.00000004,0.000000
 02,-0.00000003,-0.00000013,0.00000002,0.00000003,0.00000004,0.00000014
 ,-0.00000004,0.00000010,-0.00000005,0.00000011,-0.00000009,0.00000017,
 0.00000007,-0.00000002,0.00000003,-0.00000007,0.00000030,-0.00000004,0
 .00000017,-0.00000003,-0.00000005,-0.00000007,0.00067385,-0.00447201,-
 0.00197680,-0.00136748,-0.00404436,-0.00186197,0.00147783,0.00031715,-
 0.00000873,0.02817713,0.00220915,-0.00065162,-0.02633526,0.00497384,0.
 00083742,-0.00134812,0.00039541,0.00005562,0.00018273,0.00016147,0.000
 06704,0.00018391,-0.00040921,-0.00015566,0.00195245,0.00111710,0.00087
 316,-0.00185976,0.00110243,0.00093573,-0.00022093,-0.00035805,-0.00013
 757,-0.00018471,0.00018877,0.00007745,-0.00047023,0.00018196,0.0000716
 7,-0.00007148,-0.00001894,-0.00000914,-0.00092072,-0.00034714,-0.00008
 158,0.00049002,0.00016483,0.00005249,0.00081136,-0.00035017,-0.0001103
 2,0.00006294,-0.00002187,-0.00001220,-0.00001461,-0.00000033,-0.000048
 21,0.00001349,0.00000525,-0.00004738,-0.00007051,-0.00089476,-0.000058
 55,0.01471066,-0.05936623,-0.00498232,-0.01588911,0.05933446,-0.000000
 92,-0.00000086,-0.00002391,0.00002957,0.00003580,-0.00002031,0.0001625
 5,-0.00000244,0.00006380,-0.00001765,0.00027549,-0.00116277,-0.0001565
 9,0.00001492,0.00007146,-0.00002657,0.00003981,-0.00001872,-0.00000095
 ,-0.00000195,-0.00000038,0.00000319,-0.00000006,0.00000063,-0.00000207
 ,-0.00000010,-0.00000071,0.00000027,0.00000058,0.00000150,0.00000181,-
 0.00000047,-0.00000113,-0.00000240,0.00000040,0.00000067,0.00001597,0.
 00000187,0.00000105,0.00000503,-0.00001509,0.00000161,-0.00000688,-0.0
 0001462,0.00000131,-0.00001514,0.00000331,0.00000219,-0.00000063,0.000
 00023,0.00000009,0.00000042,0.00000006,-0.00000018,-0.00000007,-0.0000
 0085,-0.00000020,-0.00000035,-0.00000048,0.00000050,-0.00000011,0.0000
 0054,-0.00000015,-0.00000010,0.00000026,0.00000003,-0.00000021,0.00000
 003,0.,-0.00000018,0.00000011,-0.00000013,0.00000020,-0.00000009,-0.00
 000012,-0.00000013,0.00000002,-0.00000024,0.00000038,0.,-0.00000020,0.
 00000046,0.00000012,0.00000014,0.00000022,0.00000015,-0.00000008,0.000
 00012,-0.00000012,-0.00000029,0.00000013,-0.00000013,-0.00000024,0.000
 00026,0.00000014,-0.00000001,0.00000016,0.00000006,-0.00000028,-0.0000
 0019,0.00000016,0.00000019,-0.00000029,-0.00000009,0.00000002,0.000000
 28,0.00000021,0.00000002,0.00000008,-0.00000021,0.00000021,0.00000009,
 -0.00000004,0.00000019,-0.00000031,0.00000012,0.,-0.00000019,-0.000000
 06,0.00000014,-0.00000003,0.00000002,0.00000035,-0.00000047,-0.0000001
 7,-0.00000006,0.00000064,-0.00000023,-0.00000026,0.00011381,-0.0020459
 1,0.00564476,-0.00007315,-0.00187493,0.00567936,0.00029257,0.00003721,
 0.00012452,0.00566432,-0.00027569,0.00300843,-0.00475302,0.00019189,0.
 00328400,-0.00023581,0.00002752,0.00013192,0.00001780,0.00005845,-0.00
 017798,0.00001197,-0.00014300,0.00024900,0.00025173,0.00095833,-0.0036
 3427,-0.00039595,0.00088173,-0.00363777,-0.00000608,-0.00012713,0.0002
 5308,-0.00003399,0.00006500,-0.00017648,-0.00009335,0.00005019,-0.0001
 2436,-0.00001506,-0.00001373,0.00004502,-0.00016161,-0.00012192,0.0002
 2220,0.00009076,0.00005808,-0.00012556,0.00013012,-0.00009330,0.000222
 55,0.00001317,-0.00001302,0.00004462,0.00000628,-0.00005544,0.00025256
 ,0.00000263,-0.00005169,0.00025345,-0.00002628,0.00002628,-0.00063042,
 0.00805962,-0.00481384,-0.03468561,-0.00884991,0.00693857,0.02486126\\
 0.00000303,-0.00000137,-0.00000034,-0.00000125,0.00000029,0.00000002,0
 .00000122,0.00000095,0.00000036,-0.00000288,0.,0.00000003,0.00000133,-
 0.00000023,0.00000018,-0.00000071,0.00000061,0.00000023,-0.00000377,0.
 00000141,0.00000114,0.00000231,0.00000002,-0.00000107,-0.00000123,0.00
 000045,0.00000014,0.00051483,-0.00619303,0.00562269,-0.00047894,0.0082
 4929,-0.00136732,0.00000088,-0.00000088,-0.00000047,-0.00000036,0.0000
 0023,-0.00000009,-0.00000005,0.,-0.00000005,0.00000018,0.00000003,0.00
 000022,0.00000013,-0.00000012,0.00000030,0.00000031,-0.00000028,-0.000
 00028,0.00000032,0.,0.00000044,-0.00533624,-0.00772332,-0.00988703,0.0
 0606158,0.00174047,0.00829755,-0.00407461,0.00071702,-0.00223818,-0.00
 000060,-0.00000060,-0.00000037,-0.00000016,-0.00000089,0.00000036,0.00
 000120,0.00000089,-0.00000096,0.00000006,0.,-0.00000024,0.00000045,0.0
 0000081,0.00000092,-0.00000015,-0.00000006,-0.00000021,0.01005826,0.00
 329605,-0.00544100,-0.00000109,-0.00000203,0.00000028,-0.00674637,-0.0
 0008597,0.00501048,-0.00000038,-0.00000003,-0.00000098,0.00000089,-0.0
 0000112,0.00000102,0.00000042,0.00000051,-0.00000006,-0.00000008,0.000
 00011,-0.00000070,0.00000026,0.,-0.00000013,-0.00000049,0.00000022,-0.
 00000043,-0.00000029,0.00000022,-0.00000004,-0.00000029,0.00000019,-0.
 00000005,0.00000026,0.00000055,0.00000005,0.00000056,0.00000016,-0.000
 00004,0.00000019,0.00000031,-0.00000050,0.00000020,-0.00000023,0.00000
 034,-0.00000006,-0.00000016,-0.00000043,-0.00000047,-0.00000045,0.0000
 0045,-0.00000026,-0.00000006,-0.00000022,-0.00000018,0.00000017,0.0000
 0008,0.00000024,-0.00000019,0.00000023,0.00000024,0.00000018,0.0000001
 1,-0.00000020,-0.00000055,-0.00000013,-0.00000027,-0.00000004,0.000000
 23,-0.00000028,-0.00000028,-0.00000016,-0.00000006,0.,0.00000026,0.000
 00003,0.00000002,0.00000027,0.00000045,0.00000007,0.00000019,-0.000000
 24,0.00000019,0.00000019,0.,-0.00000016,0.00000004,0.00000006,0.000000
 10,0.00000003,0.,0.00000009,0.00000027,-0.00000013,0.00000009,0.000000
 41,0.00000011,-0.00000011,0.00000025,0.00000019,-0.00000012,0.00000033
 ,-0.00000002,0.00000004,0.00000026,0.00000006,0.,0.00000017,0.00000203
 ,0.00000048,0.00000042,-0.00000027,0.00000008,0.00000033,0.00000008,0.
 00000002,0.00000021\\\@
 The archive entry for this job was punched.


 SEEN ON A WALL AT THE UNIVERSITY OF ILLINOIS AT CHICAGO CIRCLE:

 TO DO IS TO BE  -- SOCRATES
 TO BE IS TO DO  -- SARTRE
 OO BE DO BE DO  -- SINATRA
 Job cpu time:       0 days 20 hours 26 minutes 34.3 seconds.
 Elapsed time:       0 days  0 hours 51 minutes 10.4 seconds.
 File lengths (MBytes):  RWF=   6471 Int=      0 D2E=      0 Chk=     61 Scr=      2
 Normal termination of Gaussian 16 at Fri Aug 15 22:20:50 2025.
