 Entering Gaussian System, Link 0=g16
 Input=molecule.gjf
 Output=molecule.log
 Initial command:
 /share/apps/softwares/gaussian/16/g16/l1.exe "/share/home/kae/gaussian/corrtectedOI/torsion/theta60/Gau-11330.inp" -scrdir="/share/home/kae/gaussian/corrtectedOI/torsion/theta60/"
 Entering Link 1 = /share/apps/softwares/gaussian/16/g16/l1.exe PID=     11331.
  
 Copyright (c) 1988-2019, Gaussian, Inc.  All Rights Reserved.
  
 This is part of the Gaussian(R) 16 program.  It is based on
 the Gaussian(R) 09 system (copyright 2009, Gaussian, Inc.),
 the Gaussian(R) 03 system (copyright 2003, Gaussian, Inc.),
 the Gaussian(R) 98 system (copyright 1998, Gaussian, Inc.),
 the Gaussian(R) 94 system (copyright 1995, Gaussian, Inc.),
 the Gaussian 92(TM) system (copyright 1992, Gaussian, Inc.),
 the Gaussian 90(TM) system (copyright 1990, Gaussian, Inc.),
 the Gaussian 88(TM) system (copyright 1988, Gaussian, Inc.),
 the Gaussian 86(TM) system (copyright 1986, Carnegie Mellon
 University), and the Gaussian 82(TM) system (copyright 1983,
 Carnegie Mellon University). Gaussian is a federally registered
 trademark of Gaussian, Inc.
  
 This software contains proprietary and confidential information,
 including trade secrets, belonging to Gaussian, Inc.
  
 This software is provided under written license and may be
 used, copied, transmitted, or stored only in accord with that
 written license.
  
 The following legend is applicable only to US Government
 contracts under FAR:
  
                    RESTRICTED RIGHTS LEGEND
  
 Use, reproduction and disclosure by the US Government is
 subject to restrictions as set forth in subparagraphs (a)
 and (c) of the Commercial Computer Software - Restricted
 Rights clause in FAR 52.227-19.
  
 Gaussian, Inc.
 340 Quinnipiac St., Bldg. 40, Wallingford CT 06492
  
  
 ---------------------------------------------------------------
 Warning -- This program may not be used in any manner that
 competes with the business of Gaussian, Inc. or will provide
 assistance to any competitor of Gaussian, Inc.  The licensee
 of this program is prohibited from giving any competitor of
 Gaussian, Inc. access to this program.  By using this program,
 the user acknowledges that Gaussian, Inc. is engaged in the
 business of creating and licensing software in the field of
 computational chemistry and represents and warrants to the
 licensee that it is not a competitor of Gaussian, Inc. and that
 it will not use this program in any manner prohibited above.
 ---------------------------------------------------------------
  

 Cite this work as:
 Gaussian 16, Revision C.01,
 M. J. Frisch, G. W. Trucks, H. B. Schlegel, G. E. Scuseria, 
 M. A. Robb, J. R. Cheeseman, G. Scalmani, V. Barone, 
 G. A. Petersson, H. Nakatsuji, X. Li, M. Caricato, A. V. Marenich, 
 J. Bloino, B. G. Janesko, R. Gomperts, B. Mennucci, H. P. Hratchian, 
 J. V. Ortiz, A. F. Izmaylov, J. L. Sonnenberg, D. Williams-Young, 
 F. Ding, F. Lipparini, F. Egidi, J. Goings, B. Peng, A. Petrone, 
 T. Henderson, D. Ranasinghe, V. G. Zakrzewski, J. Gao, N. Rega, 
 G. Zheng, W. Liang, M. Hada, M. Ehara, K. Toyota, R. Fukuda, 
 J. Hasegawa, M. Ishida, T. Nakajima, Y. Honda, O. Kitao, H. Nakai, 
 T. Vreven, K. Throssell, J. A. Montgomery, Jr., J. E. Peralta, 
 F. Ogliaro, M. J. Bearpark, J. J. Heyd, E. N. Brothers, K. N. Kudin, 
 V. N. Staroverov, T. A. Keith, R. Kobayashi, J. Normand, 
 K. Raghavachari, A. P. Rendell, J. C. Burant, S. S. Iyengar, 
 J. Tomasi, M. Cossi, J. M. Millam, M. Klene, C. Adamo, R. Cammi, 
 J. W. Ochterski, R. L. Martin, K. Morokuma, O. Farkas, 
 J. B. Foresman, and D. J. Fox, Gaussian, Inc., Wallingford CT, 2019.
 
 ******************************************
 Gaussian 16:  ES64L-G16RevC.01  3-Jul-2019
                15-Aug-2025 
 ******************************************
 %mem=56GB
 %nprocshared=24
 Will use up to   24 processors via shared memory.
 %chk=molecule.chk
 ---------------------------------------------------
 #p opt=modredundant freq Ub3lyp/6-31g(d,p) em=gd3bj
 ---------------------------------------------------
 1/18=120,19=15,26=3,38=1/1,3;
 2/9=110,12=2,17=6,18=5,40=1/2;
 3/5=1,6=6,7=101,11=2,25=1,30=1,71=1,74=-5,116=2,124=41/1,2,3;
 4//1;
 5/5=2,38=5/2;
 6/7=2,8=2,9=2,10=2,28=1/1;
 7//1,2,3,16;
 1/18=20,19=15,26=3/3(2);
 2/9=110/2;
 99//99;
 2/9=110/2;
 3/5=1,6=6,7=101,11=2,25=1,30=1,71=1,74=-5,116=2,124=41/1,2,3;
 4/5=5,16=3,69=1/1;
 5/5=2,38=5/2;
 7//1,2,3,16;
 1/18=20,19=15,26=3/3(-5);
 2/9=110/2;
 6/7=2,8=2,9=2,10=2,19=2,28=1/1;
 99/9=1/99;
 Leave Link    1 at Fri Aug 15 20:57:18 2025, MaxMem=  7516192768 cpu:               1.4 elap:               0.1
 (Enter /share/apps/softwares/gaussian/16/g16/l101.exe)
 --------
 molecule
 --------
 Symbolic Z-matrix:
 Charge =  0 Multiplicity = 2
 C                    -0.58017  -0.00001  -0.00001 
 C                    -1.306     0.61182  -1.0358 
 C                    -2.69683   0.61085  -1.03588 
 C                    -3.4172    0.       -0.00004 
 C                    -2.69685  -0.61086   1.03582 
 C                    -1.30602  -0.61184   1.03576 
 C                     0.89624  -0.00002  0. 
 C                     1.62663  -0.07024  -1.20058 
 C                     3.01199  -0.06737  -1.20391 
 C                     3.75439  -0.00002   0.00001 
 C                     3.01197   0.06732   1.20393 
 C                     1.62661   0.07019   1.20059 
 H                    -0.7728    1.11451  -1.83622 
 H                    -3.23923   1.09421  -1.84245 
 H                    -3.23927  -1.0942    1.84238 
 H                    -0.77284  -1.11452   1.83619 
 H                     1.09501  -0.16832  -2.14178 
 H                     1.09498   0.16827   2.14178 
 C                     5.20759  0.         0.00002 
 C                     5.94223   1.05685  -0.6916 
 C                     6.83285   0.75788  -1.74789 
 C                     5.79311   2.4148   -0.3283 
 C                     7.53014   1.76354  -2.40699 
 C                     6.496     3.41687  -0.98715 
 H                     5.13438   2.66953   0.49441 
 C                     7.36778   3.09961  -2.03181 
 H                     8.1977    1.50575  -3.22382 
 C                     5.94225  -1.05682   0.69162 
 C                     5.79317  -2.41478   0.3283 
 C                     6.83287  -0.75786   1.74793 
 C                     6.49609  -3.41685   0.98712 
 C                     7.5302   -1.76352   2.40699 
 C                     7.36787  -3.09958   2.03177 
 H                     6.37152  -4.45045   0.67814 
 H                     8.19776  -1.50572   3.22382 
 H                     7.91462   3.88356  -2.54631 
 H                     6.95334  -0.27436  -2.05709 
 H                     6.37141   4.45048  -0.67819 
 H                     7.91475  -3.88352   2.54624 
 H                     5.13442  -2.66951  -0.49439 
 H                     6.95332   0.27437   2.05717 
 H                     3.54308   0.15376   2.14501 
 H                     3.5431   -0.15384  -2.14498 
 C                    -5.60975  -1.20488  -0.22523 
 C                    -5.60975   1.2049    0.22512 
 C                    -4.94619  -2.44509  -0.48901 
 C                    -7.05391  -1.19988  -0.2166 
 C                    -7.05391   1.19991   0.21647 
 C                    -4.94618   2.44511   0.48891 
 C                    -5.65497  -3.59754  -0.70176 
 H                    -3.86351  -2.45884  -0.52389 
 C                    -7.75379  -2.42534  -0.43961 
 C                    -7.75378   2.42538   0.43947 
 H                    -3.8635    2.45885   0.52381 
 C                    -5.65496   3.59756   0.70165 
 C                    -7.07824  -3.5922   -0.67132 
 H                    -5.12889  -4.52603  -0.90155 
 H                    -8.83998  -2.40666  -0.42371 
 C                    -7.07823   3.59223   0.67119 
 H                    -8.83997   2.4067    0.42355 
 H                    -5.12888   4.52604   0.90145 
 H                    -7.62244  -4.51629  -0.84002 
 H                    -7.62243   4.51632   0.83988 
 C                    -4.90647   0.00001  -0.00005 
 C                    -7.73559   0.00002  -0.00007 
 H                    -8.8227    0.00002  -0.00008 
 
 The following ModRedundant input section has been read:
 D      10      19      20      21 F                                           
 D      10      19      28      30 F                                           
 D      11      10      19      20 F                                           
 
 ITRead=  0  0  0  0  0  0  0  0  0  0  0  0  0  0  0  0  0  0  0  0
 ITRead=  0  0  0  0  0  0  0  0  0  0  0  0  0  0  0  0  0  0  0  0
 ITRead=  0  0  0  0  0  0  0  0  0  0  0  0  0  0  0  0  0  0  0  0
 ITRead=  0  0  0  0  0  0
 MicOpt= -1 -1 -1 -1 -1 -1 -1 -1 -1 -1 -1 -1 -1 -1 -1 -1 -1 -1 -1 -1
 MicOpt= -1 -1 -1 -1 -1 -1 -1 -1 -1 -1 -1 -1 -1 -1 -1 -1 -1 -1 -1 -1
 MicOpt= -1 -1 -1 -1 -1 -1 -1 -1 -1 -1 -1 -1 -1 -1 -1 -1 -1 -1 -1 -1
 MicOpt= -1 -1 -1 -1 -1 -1
 NAtoms=     66 NQM=       66 NQMF=       0 NMMI=      0 NMMIF=      0
                NMic=       0 NMicF=      0.
                    Isotopes and Nuclear Properties:
 (Nuclear quadrupole moments (NQMom) in fm**2, nuclear magnetic moments (NMagM)
  in nuclear magnetons)

  Atom         1           2           3           4           5           6           7           8           9          10
 IAtWgt=          12          12          12          12          12          12          12          12          12          12
 AtmWgt=  12.0000000  12.0000000  12.0000000  12.0000000  12.0000000  12.0000000  12.0000000  12.0000000  12.0000000  12.0000000
 NucSpn=           0           0           0           0           0           0           0           0           0           0
 AtZEff=  -0.0000000  -0.0000000  -0.0000000  -0.0000000  -0.0000000  -0.0000000  -0.0000000  -0.0000000  -0.0000000  -0.0000000
 NQMom=    0.0000000   0.0000000   0.0000000   0.0000000   0.0000000   0.0000000   0.0000000   0.0000000   0.0000000   0.0000000
 NMagM=    0.0000000   0.0000000   0.0000000   0.0000000   0.0000000   0.0000000   0.0000000   0.0000000   0.0000000   0.0000000
 AtZNuc=   6.0000000   6.0000000   6.0000000   6.0000000   6.0000000   6.0000000   6.0000000   6.0000000   6.0000000   6.0000000

  Atom        11          12          13          14          15          16          17          18          19          20
 IAtWgt=          12          12           1           1           1           1           1           1          12          12
 AtmWgt=  12.0000000  12.0000000   1.0078250   1.0078250   1.0078250   1.0078250   1.0078250   1.0078250  12.0000000  12.0000000
 NucSpn=           0           0           1           1           1           1           1           1           0           0
 AtZEff=  -0.0000000  -0.0000000  -0.0000000  -0.0000000  -0.0000000  -0.0000000  -0.0000000  -0.0000000  -0.0000000  -0.0000000
 NQMom=    0.0000000   0.0000000   0.0000000   0.0000000   0.0000000   0.0000000   0.0000000   0.0000000   0.0000000   0.0000000
 NMagM=    0.0000000   0.0000000   2.7928460   2.7928460   2.7928460   2.7928460   2.7928460   2.7928460   0.0000000   0.0000000
 AtZNuc=   6.0000000   6.0000000   1.0000000   1.0000000   1.0000000   1.0000000   1.0000000   1.0000000   6.0000000   6.0000000

  Atom        21          22          23          24          25          26          27          28          29          30
 IAtWgt=          12          12          12          12           1          12           1          12          12          12
 AtmWgt=  12.0000000  12.0000000  12.0000000  12.0000000   1.0078250  12.0000000   1.0078250  12.0000000  12.0000000  12.0000000
 NucSpn=           0           0           0           0           1           0           1           0           0           0
 AtZEff=  -0.0000000  -0.0000000  -0.0000000  -0.0000000  -0.0000000  -0.0000000  -0.0000000  -0.0000000  -0.0000000  -0.0000000
 NQMom=    0.0000000   0.0000000   0.0000000   0.0000000   0.0000000   0.0000000   0.0000000   0.0000000   0.0000000   0.0000000
 NMagM=    0.0000000   0.0000000   0.0000000   0.0000000   2.7928460   0.0000000   2.7928460   0.0000000   0.0000000   0.0000000
 AtZNuc=   6.0000000   6.0000000   6.0000000   6.0000000   1.0000000   6.0000000   1.0000000   6.0000000   6.0000000   6.0000000

  Atom        31          32          33          34          35          36          37          38          39          40
 IAtWgt=          12          12          12           1           1           1           1           1           1           1
 AtmWgt=  12.0000000  12.0000000  12.0000000   1.0078250   1.0078250   1.0078250   1.0078250   1.0078250   1.0078250   1.0078250
 NucSpn=           0           0           0           1           1           1           1           1           1           1
 AtZEff=  -0.0000000  -0.0000000  -0.0000000  -0.0000000  -0.0000000  -0.0000000  -0.0000000  -0.0000000  -0.0000000  -0.0000000
 NQMom=    0.0000000   0.0000000   0.0000000   0.0000000   0.0000000   0.0000000   0.0000000   0.0000000   0.0000000   0.0000000
 NMagM=    0.0000000   0.0000000   0.0000000   2.7928460   2.7928460   2.7928460   2.7928460   2.7928460   2.7928460   2.7928460
 AtZNuc=   6.0000000   6.0000000   6.0000000   1.0000000   1.0000000   1.0000000   1.0000000   1.0000000   1.0000000   1.0000000

  Atom        41          42          43          44          45          46          47          48          49          50
 IAtWgt=           1           1           1          12          12          12          12          12          12          12
 AtmWgt=   1.0078250   1.0078250   1.0078250  12.0000000  12.0000000  12.0000000  12.0000000  12.0000000  12.0000000  12.0000000
 NucSpn=           1           1           1           0           0           0           0           0           0           0
 AtZEff=  -0.0000000  -0.0000000  -0.0000000  -0.0000000  -0.0000000  -0.0000000  -0.0000000  -0.0000000  -0.0000000  -0.0000000
 NQMom=    0.0000000   0.0000000   0.0000000   0.0000000   0.0000000   0.0000000   0.0000000   0.0000000   0.0000000   0.0000000
 NMagM=    2.7928460   2.7928460   2.7928460   0.0000000   0.0000000   0.0000000   0.0000000   0.0000000   0.0000000   0.0000000
 AtZNuc=   1.0000000   1.0000000   1.0000000   6.0000000   6.0000000   6.0000000   6.0000000   6.0000000   6.0000000   6.0000000

  Atom        51          52          53          54          55          56          57          58          59          60
 IAtWgt=           1          12          12           1          12          12           1           1          12           1
 AtmWgt=   1.0078250  12.0000000  12.0000000   1.0078250  12.0000000  12.0000000   1.0078250   1.0078250  12.0000000   1.0078250
 NucSpn=           1           0           0           1           0           0           1           1           0           1
 AtZEff=  -0.0000000  -0.0000000  -0.0000000  -0.0000000  -0.0000000  -0.0000000  -0.0000000  -0.0000000  -0.0000000  -0.0000000
 NQMom=    0.0000000   0.0000000   0.0000000   0.0000000   0.0000000   0.0000000   0.0000000   0.0000000   0.0000000   0.0000000
 NMagM=    2.7928460   0.0000000   0.0000000   2.7928460   0.0000000   0.0000000   2.7928460   2.7928460   0.0000000   2.7928460
 AtZNuc=   1.0000000   6.0000000   6.0000000   1.0000000   6.0000000   6.0000000   1.0000000   1.0000000   6.0000000   1.0000000

  Atom        61          62          63          64          65          66
 IAtWgt=           1           1           1          12          12           1
 AtmWgt=   1.0078250   1.0078250   1.0078250  12.0000000  12.0000000   1.0078250
 NucSpn=           1           1           1           0           0           1
 AtZEff=  -0.0000000  -0.0000000  -0.0000000  -0.0000000  -0.0000000  -0.0000000
 NQMom=    0.0000000   0.0000000   0.0000000   0.0000000   0.0000000   0.0000000
 NMagM=    2.7928460   2.7928460   2.7928460   0.0000000   0.0000000   2.7928460
 AtZNuc=   1.0000000   1.0000000   1.0000000   6.0000000   6.0000000   1.0000000
 Leave Link  101 at Fri Aug 15 20:57:19 2025, MaxMem=  7516192768 cpu:               9.7 elap:               0.5
 (Enter /share/apps/softwares/gaussian/16/g16/l103.exe)

 GradGradGradGradGradGradGradGradGradGradGradGradGradGradGradGradGradGrad
 Berny optimization.
 Initialization pass.
                           ----------------------------
                           !    Initial Parameters    !
                           ! (Angstroms and Degrees)  !
 --------------------------                            --------------------------
 ! Name  Definition              Value          Derivative Info.                !
 --------------------------------------------------------------------------------
 ! R1    R(1,2)                  1.405          estimate D2E/DX2                !
 ! R2    R(1,6)                  1.405          estimate D2E/DX2                !
 ! R3    R(1,7)                  1.4764         estimate D2E/DX2                !
 ! R4    R(2,3)                  1.3908         estimate D2E/DX2                !
 ! R5    R(2,13)                 1.0852         estimate D2E/DX2                !
 ! R6    R(3,4)                  1.4018         estimate D2E/DX2                !
 ! R7    R(3,14)                 1.0855         estimate D2E/DX2                !
 ! R8    R(4,5)                  1.4018         estimate D2E/DX2                !
 ! R9    R(4,64)                 1.4893         estimate D2E/DX2                !
 ! R10   R(5,6)                  1.3908         estimate D2E/DX2                !
 ! R11   R(5,15)                 1.0855         estimate D2E/DX2                !
 ! R12   R(6,16)                 1.0852         estimate D2E/DX2                !
 ! R13   R(7,8)                  1.407          estimate D2E/DX2                !
 ! R14   R(7,12)                 1.407          estimate D2E/DX2                !
 ! R15   R(8,9)                  1.3854         estimate D2E/DX2                !
 ! R16   R(8,17)                 1.0854         estimate D2E/DX2                !
 ! R17   R(9,10)                 1.416          estimate D2E/DX2                !
 ! R18   R(9,43)                 1.0841         estimate D2E/DX2                !
 ! R19   R(10,11)                1.416          estimate D2E/DX2                !
 ! R20   R(10,19)                1.4532         estimate D2E/DX2                !
 ! R21   R(11,12)                1.3854         estimate D2E/DX2                !
 ! R22   R(11,42)                1.0841         estimate D2E/DX2                !
 ! R23   R(12,18)                1.0854         estimate D2E/DX2                !
 ! R24   R(19,20)                1.4612         estimate D2E/DX2                !
 ! R25   R(19,28)                1.4611         estimate D2E/DX2                !
 ! R26   R(20,21)                1.4136         estimate D2E/DX2                !
 ! R27   R(20,22)                1.4136         estimate D2E/DX2                !
 ! R28   R(21,23)                1.39           estimate D2E/DX2                !
 ! R29   R(21,37)                1.0843         estimate D2E/DX2                !
 ! R30   R(22,24)                1.3901         estimate D2E/DX2                !
 ! R31   R(22,25)                1.0843         estimate D2E/DX2                !
 ! R32   R(23,26)                1.3972         estimate D2E/DX2                !
 ! R33   R(23,27)                1.086          estimate D2E/DX2                !
 ! R34   R(24,26)                1.3971         estimate D2E/DX2                !
 ! R35   R(24,38)                1.086          estimate D2E/DX2                !
 ! R36   R(26,36)                1.0855         estimate D2E/DX2                !
 ! R37   R(28,29)                1.4136         estimate D2E/DX2                !
 ! R38   R(28,30)                1.4136         estimate D2E/DX2                !
 ! R39   R(29,31)                1.3901         estimate D2E/DX2                !
 ! R40   R(29,40)                1.0843         estimate D2E/DX2                !
 ! R41   R(30,32)                1.39           estimate D2E/DX2                !
 ! R42   R(30,41)                1.0843         estimate D2E/DX2                !
 ! R43   R(31,33)                1.3971         estimate D2E/DX2                !
 ! R44   R(31,34)                1.086          estimate D2E/DX2                !
 ! R45   R(32,33)                1.3972         estimate D2E/DX2                !
 ! R46   R(32,35)                1.086          estimate D2E/DX2                !
 ! R47   R(33,39)                1.0855         estimate D2E/DX2                !
 ! R48   R(44,46)                1.4311         estimate D2E/DX2                !
 ! R49   R(44,47)                1.4442         estimate D2E/DX2                !
 ! R50   R(44,64)                1.4132         estimate D2E/DX2                !
 ! R51   R(45,48)                1.4442         estimate D2E/DX2                !
 ! R52   R(45,49)                1.4311         estimate D2E/DX2                !
 ! R53   R(45,64)                1.4132         estimate D2E/DX2                !
 ! R54   R(46,50)                1.3696         estimate D2E/DX2                !
 ! R55   R(46,51)                1.0833         estimate D2E/DX2                !
 ! R56   R(47,52)                1.4288         estimate D2E/DX2                !
 ! R57   R(47,65)                1.3969         estimate D2E/DX2                !
 ! R58   R(48,53)                1.4288         estimate D2E/DX2                !
 ! R59   R(48,65)                1.3969         estimate D2E/DX2                !
 ! R60   R(49,54)                1.0833         estimate D2E/DX2                !
 ! R61   R(49,55)                1.3696         estimate D2E/DX2                !
 ! R62   R(50,56)                1.4236         estimate D2E/DX2                !
 ! R63   R(50,57)                1.0857         estimate D2E/DX2                !
 ! R64   R(52,56)                1.3681         estimate D2E/DX2                !
 ! R65   R(52,58)                1.0865         estimate D2E/DX2                !
 ! R66   R(53,59)                1.3681         estimate D2E/DX2                !
 ! R67   R(53,60)                1.0865         estimate D2E/DX2                !
 ! R68   R(55,59)                1.4236         estimate D2E/DX2                !
 ! R69   R(55,61)                1.0857         estimate D2E/DX2                !
 ! R70   R(56,62)                1.0856         estimate D2E/DX2                !
 ! R71   R(59,63)                1.0856         estimate D2E/DX2                !
 ! R72   R(65,66)                1.0871         estimate D2E/DX2                !
 ! A1    A(2,1,6)              117.7898         estimate D2E/DX2                !
 ! A2    A(2,1,7)              121.1051         estimate D2E/DX2                !
 ! A3    A(6,1,7)              121.1051         estimate D2E/DX2                !
 ! A4    A(1,2,3)              121.0871         estimate D2E/DX2                !
 ! A5    A(1,2,13)             119.449          estimate D2E/DX2                !
 ! A6    A(3,2,13)             119.4467         estimate D2E/DX2                !
 ! A7    A(2,3,4)              120.9407         estimate D2E/DX2                !
 ! A8    A(2,3,14)             119.9598         estimate D2E/DX2                !
 ! A9    A(4,3,14)             119.098          estimate D2E/DX2                !
 ! A10   A(3,4,5)              118.1546         estimate D2E/DX2                !
 ! A11   A(3,4,64)             120.9228         estimate D2E/DX2                !
 ! A12   A(5,4,64)             120.9227         estimate D2E/DX2                !
 ! A13   A(4,5,6)              120.9406         estimate D2E/DX2                !
 ! A14   A(4,5,15)             119.0981         estimate D2E/DX2                !
 ! A15   A(6,5,15)             119.9598         estimate D2E/DX2                !
 ! A16   A(1,6,5)              121.0871         estimate D2E/DX2                !
 ! A17   A(1,6,16)             119.449          estimate D2E/DX2                !
 ! A18   A(5,6,16)             119.4466         estimate D2E/DX2                !
 ! A19   A(1,7,8)              121.271          estimate D2E/DX2                !
 ! A20   A(1,7,12)             121.2711         estimate D2E/DX2                !
 ! A21   A(8,7,12)             117.4579         estimate D2E/DX2                !
 ! A22   A(7,8,9)              121.4019         estimate D2E/DX2                !
 ! A23   A(7,8,17)             119.3511         estimate D2E/DX2                !
 ! A24   A(9,8,17)             119.2021         estimate D2E/DX2                !
 ! A25   A(8,9,10)             121.4892         estimate D2E/DX2                !
 ! A26   A(8,9,43)             119.4623         estimate D2E/DX2                !
 ! A27   A(10,9,43)            119.0127         estimate D2E/DX2                !
 ! A28   A(9,10,11)            116.7589         estimate D2E/DX2                !
 ! A29   A(9,10,19)            121.6205         estimate D2E/DX2                !
 ! A30   A(11,10,19)           121.6205         estimate D2E/DX2                !
 ! A31   A(10,11,12)           121.4893         estimate D2E/DX2                !
 ! A32   A(10,11,42)           119.0125         estimate D2E/DX2                !
 ! A33   A(12,11,42)           119.4625         estimate D2E/DX2                !
 ! A34   A(7,12,11)            121.4018         estimate D2E/DX2                !
 ! A35   A(7,12,18)            119.3512         estimate D2E/DX2                !
 ! A36   A(11,12,18)           119.2022         estimate D2E/DX2                !
 ! A37   A(10,19,20)           120.1844         estimate D2E/DX2                !
 ! A38   A(10,19,28)           120.1856         estimate D2E/DX2                !
 ! A39   A(20,19,28)           119.6299         estimate D2E/DX2                !
 ! A40   A(19,20,21)           121.1637         estimate D2E/DX2                !
 ! A41   A(19,20,22)           121.3419         estimate D2E/DX2                !
 ! A42   A(21,20,22)           117.4942         estimate D2E/DX2                !
 ! A43   A(20,21,23)           121.1558         estimate D2E/DX2                !
 ! A44   A(20,21,37)           118.9753         estimate D2E/DX2                !
 ! A45   A(23,21,37)           119.8568         estimate D2E/DX2                !
 ! A46   A(20,22,24)           121.155          estimate D2E/DX2                !
 ! A47   A(20,22,25)           118.9973         estimate D2E/DX2                !
 ! A48   A(24,22,25)           119.8329         estimate D2E/DX2                !
 ! A49   A(21,23,26)           120.4133         estimate D2E/DX2                !
 ! A50   A(21,23,27)           119.5574         estimate D2E/DX2                !
 ! A51   A(26,23,27)           120.0272         estimate D2E/DX2                !
 ! A52   A(22,24,26)           120.412          estimate D2E/DX2                !
 ! A53   A(22,24,38)           119.5552         estimate D2E/DX2                !
 ! A54   A(26,24,38)           120.03           estimate D2E/DX2                !
 ! A55   A(23,26,24)           119.369          estimate D2E/DX2                !
 ! A56   A(23,26,36)           120.3167         estimate D2E/DX2                !
 ! A57   A(24,26,36)           120.3143         estimate D2E/DX2                !
 ! A58   A(19,28,29)           121.3412         estimate D2E/DX2                !
 ! A59   A(19,28,30)           121.1647         estimate D2E/DX2                !
 ! A60   A(29,28,30)           117.4939         estimate D2E/DX2                !
 ! A61   A(28,29,31)           121.1551         estimate D2E/DX2                !
 ! A62   A(28,29,40)           118.9969         estimate D2E/DX2                !
 ! A63   A(31,29,40)           119.8332         estimate D2E/DX2                !
 ! A64   A(28,30,32)           121.1558         estimate D2E/DX2                !
 ! A65   A(28,30,41)           118.9754         estimate D2E/DX2                !
 ! A66   A(32,30,41)           119.8566         estimate D2E/DX2                !
 ! A67   A(29,31,33)           120.4121         estimate D2E/DX2                !
 ! A68   A(29,31,34)           119.5551         estimate D2E/DX2                !
 ! A69   A(33,31,34)           120.0299         estimate D2E/DX2                !
 ! A70   A(30,32,33)           120.4135         estimate D2E/DX2                !
 ! A71   A(30,32,35)           119.5572         estimate D2E/DX2                !
 ! A72   A(33,32,35)           120.0271         estimate D2E/DX2                !
 ! A73   A(31,33,32)           119.3689         estimate D2E/DX2                !
 ! A74   A(31,33,39)           120.3144         estimate D2E/DX2                !
 ! A75   A(32,33,39)           120.3167         estimate D2E/DX2                !
 ! A76   A(46,44,47)           117.8892         estimate D2E/DX2                !
 ! A77   A(46,44,64)           122.5141         estimate D2E/DX2                !
 ! A78   A(47,44,64)           119.5871         estimate D2E/DX2                !
 ! A79   A(48,45,49)           117.8892         estimate D2E/DX2                !
 ! A80   A(48,45,64)           119.5872         estimate D2E/DX2                !
 ! A81   A(49,45,64)           122.514          estimate D2E/DX2                !
 ! A82   A(44,46,50)           121.1915         estimate D2E/DX2                !
 ! A83   A(44,46,51)           118.7072         estimate D2E/DX2                !
 ! A84   A(50,46,51)           120.1004         estimate D2E/DX2                !
 ! A85   A(44,47,52)           119.0741         estimate D2E/DX2                !
 ! A86   A(44,47,65)           119.4642         estimate D2E/DX2                !
 ! A87   A(52,47,65)           121.4603         estimate D2E/DX2                !
 ! A88   A(45,48,53)           119.0741         estimate D2E/DX2                !
 ! A89   A(45,48,65)           119.4642         estimate D2E/DX2                !
 ! A90   A(53,48,65)           121.4603         estimate D2E/DX2                !
 ! A91   A(45,49,54)           118.7072         estimate D2E/DX2                !
 ! A92   A(45,49,55)           121.1915         estimate D2E/DX2                !
 ! A93   A(54,49,55)           120.1004         estimate D2E/DX2                !
 ! A94   A(46,50,56)           120.7242         estimate D2E/DX2                !
 ! A95   A(46,50,57)           119.8304         estimate D2E/DX2                !
 ! A96   A(56,50,57)           119.4445         estimate D2E/DX2                !
 ! A97   A(47,52,56)           121.0721         estimate D2E/DX2                !
 ! A98   A(47,52,58)           118.2094         estimate D2E/DX2                !
 ! A99   A(56,52,58)           120.7182         estimate D2E/DX2                !
 ! A100  A(48,53,59)           121.0721         estimate D2E/DX2                !
 ! A101  A(48,53,60)           118.2093         estimate D2E/DX2                !
 ! A102  A(59,53,60)           120.7183         estimate D2E/DX2                !
 ! A103  A(49,55,59)           120.7242         estimate D2E/DX2                !
 ! A104  A(49,55,61)           119.8304         estimate D2E/DX2                !
 ! A105  A(59,55,61)           119.4445         estimate D2E/DX2                !
 ! A106  A(50,56,52)           120.0335         estimate D2E/DX2                !
 ! A107  A(50,56,62)           119.6462         estimate D2E/DX2                !
 ! A108  A(52,56,62)           120.3187         estimate D2E/DX2                !
 ! A109  A(53,59,55)           120.0335         estimate D2E/DX2                !
 ! A110  A(53,59,63)           120.3187         estimate D2E/DX2                !
 ! A111  A(55,59,63)           119.6462         estimate D2E/DX2                !
 ! A112  A(4,64,44)            119.8452         estimate D2E/DX2                !
 ! A113  A(4,64,45)            119.8453         estimate D2E/DX2                !
 ! A114  A(44,64,45)           120.3094         estimate D2E/DX2                !
 ! A115  A(47,65,48)           121.5823         estimate D2E/DX2                !
 ! A116  A(47,65,66)           119.2088         estimate D2E/DX2                !
 ! A117  A(48,65,66)           119.2089         estimate D2E/DX2                !
 ! D1    D(6,1,2,3)             -0.0421         estimate D2E/DX2                !
 ! D2    D(6,1,2,13)           178.4402         estimate D2E/DX2                !
 ! D3    D(7,1,2,3)            179.9579         estimate D2E/DX2                !
 ! D4    D(7,1,2,13)            -1.5599         estimate D2E/DX2                !
 ! D5    D(2,1,6,5)             -0.0421         estimate D2E/DX2                !
 ! D6    D(2,1,6,16)           178.4402         estimate D2E/DX2                !
 ! D7    D(7,1,6,5)            179.9579         estimate D2E/DX2                !
 ! D8    D(7,1,6,16)            -1.5598         estimate D2E/DX2                !
 ! D9    D(2,1,7,8)            -33.9172         estimate D2E/DX2                !
 ! D10   D(2,1,7,12)           146.083          estimate D2E/DX2                !
 ! D11   D(6,1,7,8)            146.0827         estimate D2E/DX2                !
 ! D12   D(6,1,7,12)           -33.9171         estimate D2E/DX2                !
 ! D13   D(1,2,3,4)              0.0851         estimate D2E/DX2                !
 ! D14   D(1,2,3,14)           179.6382         estimate D2E/DX2                !
 ! D15   D(13,2,3,4)          -178.3972         estimate D2E/DX2                !
 ! D16   D(13,2,3,14)            1.156          estimate D2E/DX2                !
 ! D17   D(2,3,4,5)             -0.0421         estimate D2E/DX2                !
 ! D18   D(2,3,4,64)           179.958          estimate D2E/DX2                !
 ! D19   D(14,3,4,5)          -179.5991         estimate D2E/DX2                !
 ! D20   D(14,3,4,64)            0.4011         estimate D2E/DX2                !
 ! D21   D(3,4,5,6)             -0.042          estimate D2E/DX2                !
 ! D22   D(3,4,5,15)          -179.599          estimate D2E/DX2                !
 ! D23   D(64,4,5,6)           179.9579         estimate D2E/DX2                !
 ! D24   D(64,4,5,15)            0.4009         estimate D2E/DX2                !
 ! D25   D(3,4,64,44)          109.9427         estimate D2E/DX2                !
 ! D26   D(3,4,64,45)          -70.0572         estimate D2E/DX2                !
 ! D27   D(5,4,64,44)          -70.0571         estimate D2E/DX2                !
 ! D28   D(5,4,64,45)          109.9429         estimate D2E/DX2                !
 ! D29   D(4,5,6,1)              0.085          estimate D2E/DX2                !
 ! D30   D(4,5,6,16)          -178.3973         estimate D2E/DX2                !
 ! D31   D(15,5,6,1)           179.6382         estimate D2E/DX2                !
 ! D32   D(15,5,6,16)            1.1559         estimate D2E/DX2                !
 ! D33   D(1,7,8,9)            179.8515         estimate D2E/DX2                !
 ! D34   D(1,7,8,17)            -2.6033         estimate D2E/DX2                !
 ! D35   D(12,7,8,9)            -0.1487         estimate D2E/DX2                !
 ! D36   D(12,7,8,17)          177.3965         estimate D2E/DX2                !
 ! D37   D(1,7,12,11)          179.8522         estimate D2E/DX2                !
 ! D38   D(1,7,12,18)           -2.6027         estimate D2E/DX2                !
 ! D39   D(8,7,12,11)           -0.1477         estimate D2E/DX2                !
 ! D40   D(8,7,12,18)          177.3975         estimate D2E/DX2                !
 ! D41   D(7,8,9,10)             0.2997         estimate D2E/DX2                !
 ! D42   D(7,8,9,43)           178.101          estimate D2E/DX2                !
 ! D43   D(17,8,9,10)         -177.2491         estimate D2E/DX2                !
 ! D44   D(17,8,9,43)            0.5522         estimate D2E/DX2                !
 ! D45   D(8,9,10,11)           -0.1472         estimate D2E/DX2                !
 ! D46   D(8,9,10,19)          179.8526         estimate D2E/DX2                !
 ! D47   D(43,9,10,11)        -177.9582         estimate D2E/DX2                !
 ! D48   D(43,9,10,19)           2.0416         estimate D2E/DX2                !
 ! D49   D(9,10,11,12)          -0.1487         estimate D2E/DX2                !
 ! D50   D(9,10,11,42)        -177.9606         estimate D2E/DX2                !
 ! D51   D(19,10,11,12)        179.8516         estimate D2E/DX2                !
 ! D52   D(19,10,11,42)          2.0396         estimate D2E/DX2                !
 ! D53   D(9,10,19,20)          60.0002         estimate D2E/DX2                !
 ! D54   D(9,10,19,28)        -119.9992         estimate D2E/DX2                !
 ! D55   D(11,10,19,20)       -120.0            Frozen                          !
 ! D56   D(11,10,19,28)         60.0005         estimate D2E/DX2                !
 ! D57   D(10,11,12,7)           0.2999         estimate D2E/DX2                !
 ! D58   D(10,11,12,18)       -177.2488         estimate D2E/DX2                !
 ! D59   D(42,11,12,7)         178.1022         estimate D2E/DX2                !
 ! D60   D(42,11,12,18)          0.5535         estimate D2E/DX2                !
 ! D61   D(10,19,20,21)       -120.0            Frozen                          !
 ! D62   D(10,19,20,22)         60.1912         estimate D2E/DX2                !
 ! D63   D(28,19,20,21)         59.9995         estimate D2E/DX2                !
 ! D64   D(28,19,20,22)       -119.8093         estimate D2E/DX2                !
 ! D65   D(10,19,28,29)         60.1913         estimate D2E/DX2                !
 ! D66   D(10,19,28,30)       -120.0            Frozen                          !
 ! D67   D(20,19,28,29)       -119.8082         estimate D2E/DX2                !
 ! D68   D(20,19,28,30)         60.0005         estimate D2E/DX2                !
 ! D69   D(19,20,21,23)        179.9049         estimate D2E/DX2                !
 ! D70   D(19,20,21,37)          1.1737         estimate D2E/DX2                !
 ! D71   D(22,20,21,23)         -0.2792         estimate D2E/DX2                !
 ! D72   D(22,20,21,37)       -179.0104         estimate D2E/DX2                !
 ! D73   D(19,20,22,24)        179.8684         estimate D2E/DX2                !
 ! D74   D(19,20,22,25)          1.271          estimate D2E/DX2                !
 ! D75   D(21,20,22,24)          0.0529         estimate D2E/DX2                !
 ! D76   D(21,20,22,25)       -178.5445         estimate D2E/DX2                !
 ! D77   D(20,21,23,26)          0.2828         estimate D2E/DX2                !
 ! D78   D(20,21,23,27)       -179.1828         estimate D2E/DX2                !
 ! D79   D(37,21,23,26)        179.003          estimate D2E/DX2                !
 ! D80   D(37,21,23,27)         -0.4626         estimate D2E/DX2                !
 ! D81   D(20,22,24,26)          0.1713         estimate D2E/DX2                !
 ! D82   D(20,22,24,38)       -179.2118         estimate D2E/DX2                !
 ! D83   D(25,22,24,26)        178.7572         estimate D2E/DX2                !
 ! D84   D(25,22,24,38)         -0.6259         estimate D2E/DX2                !
 ! D85   D(21,23,26,24)         -0.0523         estimate D2E/DX2                !
 ! D86   D(21,23,26,36)        179.8772         estimate D2E/DX2                !
 ! D87   D(27,23,26,24)        179.4108         estimate D2E/DX2                !
 ! D88   D(27,23,26,36)         -0.6597         estimate D2E/DX2                !
 ! D89   D(22,24,26,23)         -0.1727         estimate D2E/DX2                !
 ! D90   D(22,24,26,36)        179.8978         estimate D2E/DX2                !
 ! D91   D(38,24,26,23)        179.2075         estimate D2E/DX2                !
 ! D92   D(38,24,26,36)         -0.722          estimate D2E/DX2                !
 ! D93   D(19,28,29,31)        179.8678         estimate D2E/DX2                !
 ! D94   D(19,28,29,40)          1.2689         estimate D2E/DX2                !
 ! D95   D(30,28,29,31)          0.0523         estimate D2E/DX2                !
 ! D96   D(30,28,29,40)       -178.5466         estimate D2E/DX2                !
 ! D97   D(19,28,30,32)        179.9061         estimate D2E/DX2                !
 ! D98   D(19,28,30,41)          1.1749         estimate D2E/DX2                !
 ! D99   D(29,28,30,32)         -0.2781         estimate D2E/DX2                !
 ! D100  D(29,28,30,41)       -179.0093         estimate D2E/DX2                !
 ! D101  D(28,29,31,33)          0.1709         estimate D2E/DX2                !
 ! D102  D(28,29,31,34)       -179.212          estimate D2E/DX2                !
 ! D103  D(40,29,31,33)        178.7583         estimate D2E/DX2                !
 ! D104  D(40,29,31,34)         -0.6247         estimate D2E/DX2                !
 ! D105  D(28,30,32,33)          0.2822         estimate D2E/DX2                !
 ! D106  D(28,30,32,35)       -179.1832         estimate D2E/DX2                !
 ! D107  D(41,30,32,33)        179.0023         estimate D2E/DX2                !
 ! D108  D(41,30,32,35)         -0.4631         estimate D2E/DX2                !
 ! D109  D(29,31,33,32)         -0.1718         estimate D2E/DX2                !
 ! D110  D(29,31,33,39)        179.8983         estimate D2E/DX2                !
 ! D111  D(34,31,33,32)        179.2082         estimate D2E/DX2                !
 ! D112  D(34,31,33,39)         -0.7218         estimate D2E/DX2                !
 ! D113  D(30,32,33,31)         -0.0527         estimate D2E/DX2                !
 ! D114  D(30,32,33,39)        179.8773         estimate D2E/DX2                !
 ! D115  D(35,32,33,31)        179.4102         estimate D2E/DX2                !
 ! D116  D(35,32,33,39)         -0.6599         estimate D2E/DX2                !
 ! D117  D(47,44,46,50)         -1.216          estimate D2E/DX2                !
 ! D118  D(47,44,46,51)        178.4469         estimate D2E/DX2                !
 ! D119  D(64,44,46,50)        179.9138         estimate D2E/DX2                !
 ! D120  D(64,44,46,51)         -0.4233         estimate D2E/DX2                !
 ! D121  D(46,44,47,52)          1.3704         estimate D2E/DX2                !
 ! D122  D(46,44,47,65)       -178.2072         estimate D2E/DX2                !
 ! D123  D(64,44,47,52)       -179.7252         estimate D2E/DX2                !
 ! D124  D(64,44,47,65)          0.6973         estimate D2E/DX2                !
 ! D125  D(46,44,64,4)          -1.4939         estimate D2E/DX2                !
 ! D126  D(46,44,64,45)        178.5061         estimate D2E/DX2                !
 ! D127  D(47,44,64,4)         179.6544         estimate D2E/DX2                !
 ! D128  D(47,44,64,45)         -0.3456         estimate D2E/DX2                !
 ! D129  D(49,45,48,53)          1.3704         estimate D2E/DX2                !
 ! D130  D(49,45,48,65)       -178.2072         estimate D2E/DX2                !
 ! D131  D(64,45,48,53)       -179.7252         estimate D2E/DX2                !
 ! D132  D(64,45,48,65)          0.6972         estimate D2E/DX2                !
 ! D133  D(48,45,49,54)        178.4469         estimate D2E/DX2                !
 ! D134  D(48,45,49,55)         -1.216          estimate D2E/DX2                !
 ! D135  D(64,45,49,54)         -0.4232         estimate D2E/DX2                !
 ! D136  D(64,45,49,55)        179.9138         estimate D2E/DX2                !
 ! D137  D(48,45,64,4)         179.6544         estimate D2E/DX2                !
 ! D138  D(48,45,64,44)         -0.3455         estimate D2E/DX2                !
 ! D139  D(49,45,64,4)          -1.4939         estimate D2E/DX2                !
 ! D140  D(49,45,64,44)        178.5061         estimate D2E/DX2                !
 ! D141  D(44,46,50,56)          0.2468         estimate D2E/DX2                !
 ! D142  D(44,46,50,57)        179.9045         estimate D2E/DX2                !
 ! D143  D(51,46,50,56)       -179.4115         estimate D2E/DX2                !
 ! D144  D(51,46,50,57)          0.2462         estimate D2E/DX2                !
 ! D145  D(44,47,52,56)         -0.5864         estimate D2E/DX2                !
 ! D146  D(44,47,52,58)        179.6083         estimate D2E/DX2                !
 ! D147  D(65,47,52,56)        178.9824         estimate D2E/DX2                !
 ! D148  D(65,47,52,58)         -0.8229         estimate D2E/DX2                !
 ! D149  D(44,47,65,48)         -0.347          estimate D2E/DX2                !
 ! D150  D(44,47,65,66)        179.653          estimate D2E/DX2                !
 ! D151  D(52,47,65,48)       -179.9141         estimate D2E/DX2                !
 ! D152  D(52,47,65,66)          0.0859         estimate D2E/DX2                !
 ! D153  D(45,48,53,59)         -0.5864         estimate D2E/DX2                !
 ! D154  D(45,48,53,60)        179.6084         estimate D2E/DX2                !
 ! D155  D(65,48,53,59)        178.9824         estimate D2E/DX2                !
 ! D156  D(65,48,53,60)         -0.8228         estimate D2E/DX2                !
 ! D157  D(45,48,65,47)         -0.347          estimate D2E/DX2                !
 ! D158  D(45,48,65,66)        179.653          estimate D2E/DX2                !
 ! D159  D(53,48,65,47)       -179.9141         estimate D2E/DX2                !
 ! D160  D(53,48,65,66)          0.0858         estimate D2E/DX2                !
 ! D161  D(45,49,55,59)          0.2468         estimate D2E/DX2                !
 ! D162  D(45,49,55,61)        179.9045         estimate D2E/DX2                !
 ! D163  D(54,49,55,59)       -179.4116         estimate D2E/DX2                !
 ! D164  D(54,49,55,61)          0.2462         estimate D2E/DX2                !
 ! D165  D(46,50,56,52)          0.592          estimate D2E/DX2                !
 ! D166  D(46,50,56,62)       -179.8578         estimate D2E/DX2                !
 ! D167  D(57,50,56,52)       -179.0671         estimate D2E/DX2                !
 ! D168  D(57,50,56,62)          0.4831         estimate D2E/DX2                !
 ! D169  D(47,52,56,50)         -0.4064         estimate D2E/DX2                !
 ! D170  D(47,52,56,62)       -179.9535         estimate D2E/DX2                !
 ! D171  D(58,52,56,50)        179.394          estimate D2E/DX2                !
 ! D172  D(58,52,56,62)         -0.1531         estimate D2E/DX2                !
 ! D173  D(48,53,59,55)         -0.4063         estimate D2E/DX2                !
 ! D174  D(48,53,59,63)       -179.9535         estimate D2E/DX2                !
 ! D175  D(60,53,59,55)        179.394          estimate D2E/DX2                !
 ! D176  D(60,53,59,63)         -0.1531         estimate D2E/DX2                !
 ! D177  D(49,55,59,53)          0.5919         estimate D2E/DX2                !
 ! D178  D(49,55,59,63)       -179.8579         estimate D2E/DX2                !
 ! D179  D(61,55,59,53)       -179.0671         estimate D2E/DX2                !
 ! D180  D(61,55,59,63)          0.4831         estimate D2E/DX2                !
 --------------------------------------------------------------------------------
 Trust Radius=3.00D-01 FncErr=1.00D-07 GrdErr=1.00D-06 EigMax=2.50D+02 EigMin=1.00D-04
 Number of steps in this run=    379 maximum allowed number of steps=    396.
 GradGradGradGradGradGradGradGradGradGradGradGradGradGradGradGradGradGrad

 Leave Link  103 at Fri Aug 15 20:57:19 2025, MaxMem=  7516192768 cpu:               0.5 elap:               0.1
 (Enter /share/apps/softwares/gaussian/16/g16/l202.exe)
 Stoichiometry    C39H27(2)
 Framework group  C1[X(C39H27)]
 Deg. of freedom   192
 Full point group                 C1      NOp   1
 Largest Abelian subgroup         C1      NOp   1
 Largest concise Abelian subgroup C1      NOp   1
                         Standard orientation:                         
 ---------------------------------------------------------------------
 Center     Atomic      Atomic             Coordinates (Angstroms)
 Number     Number       Type             X           Y           Z
 ---------------------------------------------------------------------
      1          6           0        0.580136   -0.000017   -0.000009
      2          6           0        1.305965    0.786628    0.910138
      3          6           0        2.696799    0.785686    0.910383
      4          6           0        3.417162   -0.000006   -0.000005
      5          6           0        2.696808   -0.785706   -0.910395
      6          6           0        1.305974   -0.786658   -0.910155
      7          6           0       -0.896279   -0.000023   -0.000012
      8          6           0       -1.626662    0.144866    1.193862
      9          6           0       -3.012023    0.148285    1.196635
     10          6           0       -3.754432   -0.000017   -0.000015
     11          6           0       -3.012019   -0.148337   -1.196661
     12          6           0       -1.626658   -0.144922   -1.193886
     13          1           0        0.772774    1.423925    1.608154
     14          1           0        3.239203    1.405057    1.617889
     15          1           0        3.239219   -1.405073   -1.617900
     16          1           0        0.772791   -1.423958   -1.608173
     17          1           0       -1.095034    0.216100    2.137474
     18          1           0       -1.095029   -0.216165   -2.137495
     19          6           0       -5.207626   -0.000005   -0.000018
     20          6           0       -5.942264    1.163196    0.492164
     21          6           0       -6.832880    1.057286    1.584836
     22          6           0       -5.793143    2.434656   -0.107342
     23          6           0       -7.530161    2.164319    2.054146
     24          6           0       -6.496032    3.538112    0.362357
     25          1           0       -5.134418    2.538668   -0.962285
     26          6           0       -7.367799    3.412126    1.446839
     27          1           0       -8.197721    2.056236    2.903848
     28          6           0       -5.942297   -1.163166   -0.492180
     29          6           0       -5.793210   -2.434627    0.107352
     30          6           0       -6.832921   -1.057258   -1.584853
     31          6           0       -6.496140   -3.538067   -0.362312
     32          6           0       -7.530249   -2.164277   -2.054117
     33          6           0       -7.367927   -3.412075   -1.446780
     34          1           0       -6.371564   -4.500053    0.125944
     35          1           0       -8.197816   -2.056191   -2.903813
     36          1           0       -7.914640    4.275218    1.813376
     37          1           0       -6.953364    0.096681    2.073065
     38          1           0       -6.371435    4.500104   -0.125883
     39          1           0       -7.914807   -4.275156   -1.813286
     40          1           0       -5.134456   -2.538644    0.962273
     41          1           0       -6.953371   -0.096667   -2.073117
     42          1           0       -3.543129   -0.231014   -2.138076
     43          1           0       -3.543131    0.230933    2.138054
     44          6           0        5.609714   -1.145462    0.436320
     45          6           0        5.609712    1.145459   -0.436320
     46          6           0        4.946153   -2.318804    0.916925
     47          6           0        7.053873   -1.142086    0.426932
     48          6           0        7.053870    1.142089   -0.426927
     49          6           0        4.946147    2.318799   -0.916928
     50          6           0        5.654930   -3.414886    1.331670
     51          1           0        3.863468   -2.326117    0.953705
     52          6           0        7.753751   -2.308182    0.864789
     53          6           0        7.753744    2.308189   -0.864781
     54          1           0        3.863461    2.326107   -0.953712
     55          6           0        5.654921    3.414883   -1.331670
     56          6           0        7.078206   -3.415053    1.300754
     57          1           0        5.128856   -4.292891    1.693752
     58          1           0        8.839939   -2.292638    0.845802
     59          6           0        7.078197    3.415057   -1.300749
     60          1           0        8.839932    2.292648   -0.845790
     61          1           0        5.128844    4.292886   -1.693754
     62          1           0        7.622403   -4.294279    1.631459
     63          1           0        7.622392    4.294285   -1.631451
     64          6           0        4.906434   -0.000003   -0.000002
     65          6           0        7.735549    0.000003    0.000004
     66          1           0        8.822664    0.000005    0.000006
 ---------------------------------------------------------------------
 Rotational constants (GHZ):           0.1986225           0.0314512           0.0288148
 Leave Link  202 at Fri Aug 15 20:57:19 2025, MaxMem=  7516192768 cpu:               1.1 elap:               0.1
 (Enter /share/apps/softwares/gaussian/16/g16/l301.exe)
 Standard basis: 6-31G(d,p) (6D, 7F)
 Ernie: Thresh=  0.10000D-02 Tol=  0.10000D-05 Strict=F.
 There are   720 symmetry adapted cartesian basis functions of A   symmetry.
 There are   720 symmetry adapted basis functions of A   symmetry.
   720 basis functions,  1281 primitive gaussians,   720 cartesian basis functions
   131 alpha electrons      130 beta electrons
       nuclear repulsion energy      3545.8444185019 Hartrees.
 IExCor=  402 DFT=T Ex+Corr=B3LYP ExCW=0 ScaHFX=  0.200000
 ScaDFX=  0.800000  0.720000  1.000000  0.810000 ScalE2=  1.000000  1.000000
 IRadAn=      5 IRanWt=     -1 IRanGd=            0 ICorTp=0 IEmpDi=141
 NAtoms=   66 NActive=   66 NUniq=   66 SFac= 1.00D+00 NAtFMM=   60 NAOKFM=T Big=T
 Integral buffers will be    131072 words long.
 Raffenetti 2 integral format.
 Two-electron integral symmetry is turned on.
 R6Disp:  Grimme-D3(BJ) Dispersion energy=       -0.1707188233 Hartrees.
 Nuclear repulsion after empirical dispersion term =     3545.6736996786 Hartrees.
 Leave Link  301 at Fri Aug 15 20:57:19 2025, MaxMem=  7516192768 cpu:               2.1 elap:               0.1
 (Enter /share/apps/softwares/gaussian/16/g16/l302.exe)
 NPDir=0 NMtPBC=     1 NCelOv=     1 NCel=       1 NClECP=     1 NCelD=      1
         NCelK=      1 NCelE2=     1 NClLst=     1 CellRange=     0.0.
 One-electron integrals computed using PRISM.
 One-electron integral symmetry used in STVInt
 NBasis=   720 RedAO= T EigKep=  1.82D-04  NBF=   720
 NBsUse=   720 1.00D-06 EigRej= -1.00D+00 NBFU=   720
 Precomputing XC quadrature grid using
 IXCGrd= 4 IRadAn=           5 IRanWt=          -1 IRanGd=           0 AccXCQ= 0.00D+00.
 Generated NRdTot=       0 NPtTot=           0 NUsed=           0 NTot=          32
 NSgBfM=   668   662   662   668   668 MxSgAt=    66 MxSgA2=    66.
 Leave Link  302 at Fri Aug 15 20:57:21 2025, MaxMem=  7516192768 cpu:              27.4 elap:               1.2
 (Enter /share/apps/softwares/gaussian/16/g16/l303.exe)
 DipDrv:  MaxL=1.
 Leave Link  303 at Fri Aug 15 20:57:21 2025, MaxMem=  7516192768 cpu:               2.6 elap:               0.2
 (Enter /share/apps/softwares/gaussian/16/g16/l401.exe)
 ExpMin= 1.61D-01 ExpMax= 3.05D+03 ExpMxC= 4.57D+02 IAcc=3 IRadAn=         5 AccDes= 0.00D+00
 Harris functional with IExCor=  402 and IRadAn=       5 diagonalized for initial guess.
 HarFok:  IExCor=  402 AccDes= 0.00D+00 IRadAn=         5 IDoV= 1 UseB2=F ITyADJ=14
 ICtDFT=  3500011 ScaDFX=  1.000000  1.000000  1.000000  1.000000
 FoFCou: FMM=F IPFlag=           0 FMFlag=      100000 FMFlg1=        2001
         NFxFlg=           0 DoJE=T BraDBF=F KetDBF=T FulRan=T
         wScrn=  0.000000 ICntrl=       500 IOpCl=  0 I1Cent=   200000004 NGrid=           0
         NMat0=    1 NMatS0=      1 NMatT0=    0 NMatD0=    1 NMtDS0=    0 NMtDT0=    0
 Petite list used in FoFCou.
 Harris En= -1502.64492909865    
 JPrj=0 DoOrth=F DoCkMO=F.
 Initial guess <Sx>= 0.0000 <Sy>= 0.0000 <Sz>= 0.5000 <S**2>= 0.7500 S= 0.5000
 Leave Link  401 at Fri Aug 15 20:57:24 2025, MaxMem=  7516192768 cpu:              78.7 elap:               3.3
 (Enter /share/apps/softwares/gaussian/16/g16/l502.exe)
 Integral symmetry usage will be decided dynamically.
 UHF open shell SCF:
 Using DIIS extrapolation, IDIIS=  1040.
 NGot=  7516192768 LenX=  7515129813 LenY=  7514610693
 Requested convergence on RMS density matrix=1.00D-08 within 128 cycles.
 Requested convergence on MAX density matrix=1.00D-06.
 Requested convergence on             energy=1.00D-06.
 No special actions if energy rises.
 Fock matrices will be formed incrementally for  20 cycles.
 Integral accuracy reduced to 1.0D-05 until final iterations.

 Cycle   1  Pass 0  IDiag  1:
 FoFJK:  IHMeth= 1 ICntrl=       0 DoSepK=F KAlg= 0 I1Cent=           0 FoldK=F
 IRaf= 670000000 NMat=       1 IRICut=       1 DoRegI=T DoRafI=F ISym2E= 0 IDoP0=0 IntGTp=1.
 FoFCou: FMM=T IPFlag=           0 FMFlag=      100000 FMFlg1=        2001
         NFxFlg=           0 DoJE=F BraDBF=F KetDBF=F FulRan=T
         wScrn=  0.000000 ICntrl=         0 IOpCl=  1 I1Cent=           0 NGrid=           0
         NMat0=    1 NMatS0=      1 NMatT0=    0 NMatD0=    1 NMtDS0=    0 NMtDT0=    0
 Symmetry not used in FoFCou.
 FMM levels:  10  Number of levels for PrismC:   9
 E= -1501.84442632288    
 DIIS: error= 4.09D-02 at cycle   1 NSaved=   1.
 NSaved= 1 IEnMin= 1 EnMin= -1501.84442632288     IErMin= 1 ErrMin= 4.09D-02
 ErrMax= 4.09D-02  0.00D+00 EMaxC= 1.00D-01 BMatC= 2.74D+00 BMatP= 2.74D+00
 IDIUse=3 WtCom= 5.91D-01 WtEn= 4.09D-01
 Coeff-Com:  0.100D+01
 Coeff-En:   0.100D+01
 Coeff:      0.100D+01
 Gap=     0.130 Goal=   None    Shift=    0.000
 Gap=     0.089 Goal=   None    Shift=    0.000
 GapD=    0.089 DampG=0.500 DampE=0.500 DampFc=0.2500 IDamp=-1.
 Damping current iteration by 2.50D-01
 RMSDP=2.89D-03 MaxDP=1.22D-01              OVMax= 1.50D-01

 Cycle   2  Pass 0  IDiag  1:
 RMSU=  6.92D-04    CP:  9.82D-01
 E= -1502.11334615614     Delta-E=       -0.268919833261 Rises=F Damp=T
 DIIS: error= 2.34D-02 at cycle   2 NSaved=   2.
 NSaved= 2 IEnMin= 2 EnMin= -1502.11334615614     IErMin= 2 ErrMin= 2.34D-02
 ErrMax= 2.34D-02  0.00D+00 EMaxC= 1.00D-01 BMatC= 8.80D-01 BMatP= 2.74D+00
 IDIUse=3 WtCom= 7.66D-01 WtEn= 2.34D-01
 Coeff-Com: -0.111D+01 0.211D+01
 Coeff-En:   0.000D+00 0.100D+01
 Coeff:     -0.848D+00 0.185D+01
 Gap=     0.102 Goal=   None    Shift=    0.000
 Gap=     0.118 Goal=   None    Shift=    0.000
 RMSDP=1.32D-03 MaxDP=8.09D-02 DE=-2.69D-01 OVMax= 1.09D-01

 Cycle   3  Pass 0  IDiag  1:
 RMSU=  7.63D-04    CP:  9.43D-01  2.41D+00
 E= -1502.59793891107     Delta-E=       -0.484592754930 Rises=F Damp=F
 DIIS: error= 4.53D-03 at cycle   3 NSaved=   3.
 NSaved= 3 IEnMin= 3 EnMin= -1502.59793891107     IErMin= 3 ErrMin= 4.53D-03
 ErrMax= 4.53D-03  0.00D+00 EMaxC= 1.00D-01 BMatC= 6.65D-02 BMatP= 8.80D-01
 IDIUse=3 WtCom= 9.55D-01 WtEn= 4.53D-02
 Coeff-Com: -0.330D+00 0.668D+00 0.662D+00
 Coeff-En:   0.000D+00 0.000D+00 0.100D+01
 Coeff:     -0.315D+00 0.637D+00 0.677D+00
 Gap=     0.123 Goal=   None    Shift=    0.000
 Gap=     0.101 Goal=   None    Shift=    0.000
 RMSDP=4.48D-04 MaxDP=4.73D-02 DE=-4.85D-01 OVMax= 8.42D-02

 Cycle   4  Pass 0  IDiag  1:
 RMSU=  4.07D-04    CP:  9.45D-01  2.30D+00  7.75D-01
 E= -1502.59758894161     Delta-E=        0.000349969452 Rises=F Damp=F
 DIIS: error= 6.85D-03 at cycle   4 NSaved=   4.
 NSaved= 4 IEnMin= 3 EnMin= -1502.59793891107     IErMin= 3 ErrMin= 4.53D-03
 ErrMax= 6.85D-03  0.00D+00 EMaxC= 1.00D-01 BMatC= 6.47D-02 BMatP= 6.65D-02
 IDIUse=3 WtCom= 9.31D-01 WtEn= 6.85D-02
 Coeff-Com: -0.377D-01 0.107D+00 0.490D+00 0.441D+00
 Coeff-En:   0.000D+00 0.000D+00 0.504D+00 0.496D+00
 Coeff:     -0.351D-01 0.996D-01 0.491D+00 0.445D+00
 Gap=     0.109 Goal=   None    Shift=    0.000
 Gap=     0.114 Goal=   None    Shift=    0.000
 RMSDP=2.65D-04 MaxDP=1.58D-02 DE= 3.50D-04 OVMax= 4.51D-02

 Cycle   5  Pass 0  IDiag  1:
 RMSU=  1.17D-04    CP:  9.45D-01  2.31D+00  8.46D-01  4.32D-01
 E= -1502.61543725003     Delta-E=       -0.017848308416 Rises=F Damp=F
 DIIS: error= 2.02D-03 at cycle   5 NSaved=   5.
 NSaved= 5 IEnMin= 5 EnMin= -1502.61543725003     IErMin= 5 ErrMin= 2.02D-03
 ErrMax= 2.02D-03  0.00D+00 EMaxC= 1.00D-01 BMatC= 4.86D-03 BMatP= 6.47D-02
 IDIUse=3 WtCom= 9.80D-01 WtEn= 2.02D-02
 Coeff-Com:  0.799D-02 0.218D-03 0.227D+00 0.277D+00 0.489D+00
 Coeff-En:   0.000D+00 0.000D+00 0.000D+00 0.298D-01 0.970D+00
 Coeff:      0.783D-02 0.214D-03 0.222D+00 0.272D+00 0.498D+00
 Gap=     0.110 Goal=   None    Shift=    0.000
 Gap=     0.113 Goal=   None    Shift=    0.000
 RMSDP=7.26D-05 MaxDP=5.23D-03 DE=-1.78D-02 OVMax= 1.21D-02

 Cycle   6  Pass 0  IDiag  1:
 RMSU=  4.72D-05    CP:  9.45D-01  2.32D+00  8.50D-01  4.97D-01  5.90D-01
 E= -1502.61665709128     Delta-E=       -0.001219841248 Rises=F Damp=F
 DIIS: error= 7.97D-04 at cycle   6 NSaved=   6.
 NSaved= 6 IEnMin= 6 EnMin= -1502.61665709128     IErMin= 6 ErrMin= 7.97D-04
 ErrMax= 7.97D-04  0.00D+00 EMaxC= 1.00D-01 BMatC= 7.13D-04 BMatP= 4.86D-03
 IDIUse=3 WtCom= 9.92D-01 WtEn= 7.97D-03
 Coeff-Com:  0.833D-02-0.118D-01 0.675D-01 0.105D+00 0.315D+00 0.516D+00
 Coeff-En:   0.000D+00 0.000D+00 0.000D+00 0.000D+00 0.114D+00 0.886D+00
 Coeff:      0.827D-02-0.117D-01 0.669D-01 0.104D+00 0.313D+00 0.519D+00
 Gap=     0.111 Goal=   None    Shift=    0.000
 Gap=     0.113 Goal=   None    Shift=    0.000
 RMSDP=2.71D-05 MaxDP=1.95D-03 DE=-1.22D-03 OVMax= 4.37D-03

 Cycle   7  Pass 0  IDiag  1:
 RMSU=  1.62D-05    CP:  9.45D-01  2.32D+00  8.56D-01  5.04D-01  6.87D-01
                    CP:  6.23D-01
 E= -1502.61685469912     Delta-E=       -0.000197607840 Rises=F Damp=F
 DIIS: error= 2.11D-04 at cycle   7 NSaved=   7.
 NSaved= 7 IEnMin= 7 EnMin= -1502.61685469912     IErMin= 7 ErrMin= 2.11D-04
 ErrMax= 2.11D-04  0.00D+00 EMaxC= 1.00D-01 BMatC= 8.22D-05 BMatP= 7.13D-04
 IDIUse=3 WtCom= 9.98D-01 WtEn= 2.11D-03
 Coeff-Com:  0.427D-02-0.735D-02 0.153D-01 0.326D-01 0.132D+00 0.303D+00
 Coeff-Com:  0.519D+00
 Coeff-En:   0.000D+00 0.000D+00 0.000D+00 0.000D+00 0.000D+00 0.000D+00
 Coeff-En:   0.100D+01
 Coeff:      0.427D-02-0.734D-02 0.152D-01 0.326D-01 0.132D+00 0.303D+00
 Coeff:      0.520D+00
 Gap=     0.111 Goal=   None    Shift=    0.000
 Gap=     0.114 Goal=   None    Shift=    0.000
 RMSDP=1.00D-05 MaxDP=1.02D-03 DE=-1.98D-04 OVMax= 1.96D-03

 Cycle   8  Pass 0  IDiag  1:
 RMSU=  7.99D-06    CP:  9.45D-01  2.32D+00  8.55D-01  5.07D-01  6.91D-01
                    CP:  7.24D-01  7.86D-01
 E= -1502.61688034594     Delta-E=       -0.000025646823 Rises=F Damp=F
 DIIS: error= 1.46D-04 at cycle   8 NSaved=   8.
 NSaved= 8 IEnMin= 8 EnMin= -1502.61688034594     IErMin= 8 ErrMin= 1.46D-04
 ErrMax= 1.46D-04  0.00D+00 EMaxC= 1.00D-01 BMatC= 1.82D-05 BMatP= 8.22D-05
 IDIUse=3 WtCom= 9.99D-01 WtEn= 1.46D-03
 Coeff-Com: -0.696D-03 0.171D-03-0.174D-01-0.216D-01-0.430D-01-0.211D-01
 Coeff-Com:  0.303D+00 0.801D+00
 Coeff-En:   0.000D+00 0.000D+00 0.000D+00 0.000D+00 0.000D+00 0.000D+00
 Coeff-En:   0.000D+00 0.100D+01
 Coeff:     -0.695D-03 0.171D-03-0.174D-01-0.215D-01-0.429D-01-0.211D-01
 Coeff:      0.302D+00 0.801D+00
 Gap=     0.112 Goal=   None    Shift=    0.000
 Gap=     0.114 Goal=   None    Shift=    0.000
 RMSDP=7.73D-06 MaxDP=8.51D-04 DE=-2.56D-05 OVMax= 1.44D-03

 Initial convergence to 1.0D-05 achieved.  Increase integral accuracy.
 Cycle   9  Pass 1  IDiag  1:
 E= -1502.61689614251     Delta-E=       -0.000015796566 Rises=F Damp=F
 DIIS: error= 2.49D-04 at cycle   1 NSaved=   1.
 NSaved= 1 IEnMin= 1 EnMin= -1502.61689614251     IErMin= 1 ErrMin= 2.49D-04
 ErrMax= 2.49D-04  0.00D+00 EMaxC= 1.00D-01 BMatC= 5.49D-05 BMatP= 5.49D-05
 IDIUse=3 WtCom= 9.98D-01 WtEn= 2.49D-03
 Coeff-Com:  0.100D+01
 Coeff-En:   0.100D+01
 Coeff:      0.100D+01
 Gap=     0.111 Goal=   None    Shift=    0.000
 Gap=     0.115 Goal=   None    Shift=    0.000
 RMSDP=7.73D-06 MaxDP=8.51D-04 DE=-1.58D-05 OVMax= 2.44D-03

 Cycle  10  Pass 1  IDiag  1:
 RMSU=  9.00D-05    CP:  1.00D+00
 E= -1502.61689431736     Delta-E=        0.000001825149 Rises=F Damp=F
 DIIS: error= 1.75D-04 at cycle   2 NSaved=   2.
 NSaved= 2 IEnMin= 1 EnMin= -1502.61689614251     IErMin= 2 ErrMin= 1.75D-04
 ErrMax= 1.75D-04  0.00D+00 EMaxC= 1.00D-01 BMatC= 5.11D-05 BMatP= 5.49D-05
 IDIUse=3 WtCom= 9.98D-01 WtEn= 1.75D-03
 Coeff-Com:  0.487D+00 0.513D+00
 Coeff-En:   0.545D+00 0.455D+00
 Coeff:      0.487D+00 0.513D+00
 Gap=     0.112 Goal=   None    Shift=    0.000
 Gap=     0.114 Goal=   None    Shift=    0.000
 RMSDP=1.09D-05 MaxDP=9.42D-04 DE= 1.83D-06 OVMax= 3.18D-03

 Cycle  11  Pass 1  IDiag  1:
 RMSU=  1.09D-05    CP:  1.00D+00  9.95D-01
 E= -1502.61690002015     Delta-E=       -0.000005702794 Rises=F Damp=F
 DIIS: error= 1.28D-04 at cycle   3 NSaved=   3.
 NSaved= 3 IEnMin= 3 EnMin= -1502.61690002015     IErMin= 3 ErrMin= 1.28D-04
 ErrMax= 1.28D-04  0.00D+00 EMaxC= 1.00D-01 BMatC= 3.27D-05 BMatP= 5.11D-05
 IDIUse=3 WtCom= 9.99D-01 WtEn= 1.28D-03
 Coeff-Com:  0.886D-02 0.441D+00 0.550D+00
 Coeff-En:   0.000D+00 0.417D+00 0.583D+00
 Coeff:      0.885D-02 0.441D+00 0.550D+00
 Gap=     0.112 Goal=   None    Shift=    0.000
 Gap=     0.114 Goal=   None    Shift=    0.000
 RMSDP=5.29D-06 MaxDP=4.42D-04 DE=-5.70D-06 OVMax= 1.57D-03

 Cycle  12  Pass 1  IDiag  1:
 RMSU=  1.75D-06    CP:  1.00D+00  1.01D+00  5.52D-01
 E= -1502.61690994684     Delta-E=       -0.000009926684 Rises=F Damp=F
 DIIS: error= 3.07D-05 at cycle   4 NSaved=   4.
 NSaved= 4 IEnMin= 4 EnMin= -1502.61690994684     IErMin= 4 ErrMin= 3.07D-05
 ErrMax= 3.07D-05  0.00D+00 EMaxC= 1.00D-01 BMatC= 1.15D-06 BMatP= 3.27D-05
 IDIUse=1 WtCom= 1.00D+00 WtEn= 0.00D+00
 Coeff-Com: -0.102D-01 0.243D+00 0.323D+00 0.444D+00
 Coeff:     -0.102D-01 0.243D+00 0.323D+00 0.444D+00
 Gap=     0.112 Goal=   None    Shift=    0.000
 Gap=     0.114 Goal=   None    Shift=    0.000
 RMSDP=1.01D-06 MaxDP=8.29D-05 DE=-9.93D-06 OVMax= 1.76D-04

 Cycle  13  Pass 1  IDiag  1:
 RMSU=  9.50D-07    CP:  1.00D+00  1.01D+00  5.72D-01  8.57D-01
 E= -1502.61691034938     Delta-E=       -0.000000402545 Rises=F Damp=F
 DIIS: error= 2.10D-05 at cycle   5 NSaved=   5.
 NSaved= 5 IEnMin= 5 EnMin= -1502.61691034938     IErMin= 5 ErrMin= 2.10D-05
 ErrMax= 2.10D-05  0.00D+00 EMaxC= 1.00D-01 BMatC= 2.02D-07 BMatP= 1.15D-06
 IDIUse=1 WtCom= 1.00D+00 WtEn= 0.00D+00
 Coeff-Com: -0.602D-02-0.361D-01-0.386D-01 0.156D+00 0.925D+00
 Coeff:     -0.602D-02-0.361D-01-0.386D-01 0.156D+00 0.925D+00
 Gap=     0.112 Goal=   None    Shift=    0.000
 Gap=     0.114 Goal=   None    Shift=    0.000
 RMSDP=9.79D-07 MaxDP=1.16D-04 DE=-4.03D-07 OVMax= 2.46D-04

 Cycle  14  Pass 1  IDiag  1:
 RMSU=  5.86D-07    CP:  1.00D+00  1.01D+00  5.76D-01  1.29D+00  1.23D+00
 E= -1502.61691056499     Delta-E=       -0.000000215608 Rises=F Damp=F
 DIIS: error= 1.95D-05 at cycle   6 NSaved=   6.
 NSaved= 6 IEnMin= 6 EnMin= -1502.61691056499     IErMin= 6 ErrMin= 1.95D-05
 ErrMax= 1.95D-05  0.00D+00 EMaxC= 1.00D-01 BMatC= 2.32D-07 BMatP= 2.02D-07
 IDIUse=1 WtCom= 1.00D+00 WtEn= 0.00D+00
 Coeff-Com:  0.341D-02-0.297D+00-0.384D+00-0.276D+00 0.111D+01 0.840D+00
 Coeff:      0.341D-02-0.297D+00-0.384D+00-0.276D+00 0.111D+01 0.840D+00
 Gap=     0.112 Goal=   None    Shift=    0.000
 Gap=     0.115 Goal=   None    Shift=    0.000
 RMSDP=1.34D-06 MaxDP=1.48D-04 DE=-2.16D-07 OVMax= 3.29D-04

 Cycle  15  Pass 1  IDiag  1:
 RMSU=  3.60D-07    CP:  1.00D+00  1.01D+00  5.82D-01  1.78D+00  2.23D+00
                    CP:  9.00D-01
 E= -1502.61691077676     Delta-E=       -0.000000211771 Rises=F Damp=F
 DIIS: error= 4.83D-06 at cycle   7 NSaved=   7.
 NSaved= 7 IEnMin= 7 EnMin= -1502.61691077676     IErMin= 7 ErrMin= 4.83D-06
 ErrMax= 4.83D-06  0.00D+00 EMaxC= 1.00D-01 BMatC= 3.62D-08 BMatP= 2.02D-07
 IDIUse=1 WtCom= 1.00D+00 WtEn= 0.00D+00
 Coeff-Com:  0.280D-02-0.196D+00-0.255D+00-0.202D+00 0.664D+00 0.567D+00
 Coeff-Com:  0.420D+00
 Coeff:      0.280D-02-0.196D+00-0.255D+00-0.202D+00 0.664D+00 0.567D+00
 Coeff:      0.420D+00
 Gap=     0.112 Goal=   None    Shift=    0.000
 Gap=     0.115 Goal=   None    Shift=    0.000
 RMSDP=2.37D-07 MaxDP=1.91D-05 DE=-2.12D-07 OVMax= 6.32D-05

 Cycle  16  Pass 1  IDiag  1:
 RMSU=  1.24D-07    CP:  1.00D+00  1.01D+00  5.83D-01  1.85D+00  2.32D+00
                    CP:  1.01D+00  6.59D-01
 E= -1502.61691079038     Delta-E=       -0.000000013613 Rises=F Damp=F
 DIIS: error= 1.42D-06 at cycle   8 NSaved=   8.
 NSaved= 8 IEnMin= 8 EnMin= -1502.61691079038     IErMin= 8 ErrMin= 1.42D-06
 ErrMax= 1.42D-06  0.00D+00 EMaxC= 1.00D-01 BMatC= 1.85D-09 BMatP= 3.62D-08
 IDIUse=1 WtCom= 1.00D+00 WtEn= 0.00D+00
 Coeff-Com:  0.333D-03-0.125D-01-0.170D-01-0.197D-01 0.227D-01 0.380D-01
 Coeff-Com:  0.148D+00 0.840D+00
 Coeff:      0.333D-03-0.125D-01-0.170D-01-0.197D-01 0.227D-01 0.380D-01
 Coeff:      0.148D+00 0.840D+00
 Gap=     0.112 Goal=   None    Shift=    0.000
 Gap=     0.115 Goal=   None    Shift=    0.000
 RMSDP=8.68D-08 MaxDP=8.66D-06 DE=-1.36D-08 OVMax= 2.40D-05

 Cycle  17  Pass 1  IDiag  1:
 RMSU=  5.53D-08    CP:  1.00D+00  1.01D+00  5.83D-01  1.87D+00  2.35D+00
                    CP:  1.03D+00  7.73D-01  1.06D+00
 E= -1502.61691079155     Delta-E=       -0.000000001179 Rises=F Damp=F
 DIIS: error= 9.70D-07 at cycle   9 NSaved=   9.
 NSaved= 9 IEnMin= 9 EnMin= -1502.61691079155     IErMin= 9 ErrMin= 9.70D-07
 ErrMax= 9.70D-07  0.00D+00 EMaxC= 1.00D-01 BMatC= 1.13D-09 BMatP= 1.85D-09
 IDIUse=1 WtCom= 1.00D+00 WtEn= 0.00D+00
 Coeff-Com: -0.801D-03 0.639D-01 0.825D-01 0.607D-01-0.231D+00-0.183D+00
 Coeff-Com: -0.423D-01 0.587D+00 0.663D+00
 Coeff:     -0.801D-03 0.639D-01 0.825D-01 0.607D-01-0.231D+00-0.183D+00
 Coeff:     -0.423D-01 0.587D+00 0.663D+00
 Gap=     0.112 Goal=   None    Shift=    0.000
 Gap=     0.115 Goal=   None    Shift=    0.000
 RMSDP=5.36D-08 MaxDP=6.28D-06 DE=-1.18D-09 OVMax= 1.34D-05

 Cycle  18  Pass 1  IDiag  1:
 RMSU=  3.57D-08    CP:  1.00D+00  1.01D+00  5.82D-01  1.88D+00  2.38D+00
                    CP:  1.05D+00  8.14D-01  1.26D+00  9.72D-01
 E= -1502.61691079215     Delta-E=       -0.000000000591 Rises=F Damp=F
 DIIS: error= 2.93D-07 at cycle  10 NSaved=  10.
 NSaved=10 IEnMin=10 EnMin= -1502.61691079215     IErMin=10 ErrMin= 2.93D-07
 ErrMax= 2.93D-07  0.00D+00 EMaxC= 1.00D-01 BMatC= 1.43D-10 BMatP= 1.13D-09
 IDIUse=1 WtCom= 1.00D+00 WtEn= 0.00D+00
 Coeff-Com: -0.453D-03 0.338D-01 0.438D-01 0.336D-01-0.118D+00-0.978D-01
 Coeff-Com: -0.426D-01 0.141D+00 0.338D+00 0.669D+00
 Coeff:     -0.453D-03 0.338D-01 0.438D-01 0.336D-01-0.118D+00-0.978D-01
 Coeff:     -0.426D-01 0.141D+00 0.338D+00 0.669D+00
 Gap=     0.112 Goal=   None    Shift=    0.000
 Gap=     0.115 Goal=   None    Shift=    0.000
 RMSDP=1.93D-08 MaxDP=1.24D-06 DE=-5.91D-10 OVMax= 4.95D-06

 Cycle  19  Pass 1  IDiag  1:
 RMSU=  1.34D-08    CP:  1.00D+00  1.01D+00  5.83D-01  1.88D+00  2.38D+00
                    CP:  1.05D+00  8.36D-01  1.29D+00  1.13D+00  1.02D+00
 E= -1502.61691079220     Delta-E=       -0.000000000057 Rises=F Damp=F
 DIIS: error= 1.26D-07 at cycle  11 NSaved=  11.
 NSaved=11 IEnMin=11 EnMin= -1502.61691079220     IErMin=11 ErrMin= 1.26D-07
 ErrMax= 1.26D-07  0.00D+00 EMaxC= 1.00D-01 BMatC= 2.45D-11 BMatP= 1.43D-10
 IDIUse=1 WtCom= 1.00D+00 WtEn= 0.00D+00
 Coeff-Com: -0.280D-04 0.122D-02 0.163D-02 0.187D-02-0.312D-02-0.372D-02
 Coeff-Com: -0.897D-02-0.551D-01 0.529D-02 0.261D+00 0.800D+00
 Coeff:     -0.280D-04 0.122D-02 0.163D-02 0.187D-02-0.312D-02-0.372D-02
 Coeff:     -0.897D-02-0.551D-01 0.529D-02 0.261D+00 0.800D+00
 Gap=     0.112 Goal=   None    Shift=    0.000
 Gap=     0.115 Goal=   None    Shift=    0.000
 RMSDP=9.87D-09 MaxDP=8.89D-07 DE=-5.73D-11 OVMax= 2.67D-06

 SCF Done:  E(UB3LYP) =  -1502.61691079     A.U. after   19 cycles
            NFock= 19  Conv=0.99D-08     -V/T= 2.0098
 <Sx>= 0.0000 <Sy>= 0.0000 <Sz>= 0.5000 <S**2>= 0.7639 S= 0.5069
 <L.S>=  0.00000000000    
 KE= 1.487991518338D+03 PE=-1.057033402001D+04 EE= 4.034051891201D+03
 Annihilation of the first spin contaminant:
 S**2 before annihilation     0.7639,   after     0.7502
 Leave Link  502 at Fri Aug 15 20:59:55 2025, MaxMem=  7516192768 cpu:            3595.6 elap:             150.3
 (Enter /share/apps/softwares/gaussian/16/g16/l601.exe)
 Copying SCF densities to generalized density rwf, IOpCl= 1 IROHF=0.

 **********************************************************************

            Population analysis using the SCF Density.

 **********************************************************************

 Orbital symmetries:
 Alpha Orbitals:
       Occupied  (A) (A) (A) (A) (A) (A) (A) (A) (A) (A) (A) (A)
                 (A) (A) (A) (A) (A) (A) (A) (A) (A) (A) (A) (A)
                 (A) (A) (A) (A) (A) (A) (A) (A) (A) (A) (A) (A)
                 (A) (A) (A) (A) (A) (A) (A) (A) (A) (A) (A) (A)
                 (A) (A) (A) (A) (A) (A) (A) (A) (A) (A) (A) (A)
                 (A) (A) (A) (A) (A) (A) (A) (A) (A) (A) (A) (A)
                 (A) (A) (A) (A) (A) (A) (A) (A) (A) (A) (A) (A)
                 (A) (A) (A) (A) (A) (A) (A) (A) (A) (A) (A) (A)
                 (A) (A) (A) (A) (A) (A) (A) (A) (A) (A) (A) (A)
                 (A) (A) (A) (A) (A) (A) (A) (A) (A) (A) (A) (A)
                 (A) (A) (A) (A) (A) (A) (A) (A) (A) (A) (A)
       Virtual   (A) (A) (A) (A) (A) (A) (A) (A) (A) (A) (A) (A)
                 (A) (A) (A) (A) (A) (A) (A) (A) (A) (A) (A) (A)
                 (A) (A) (A) (A) (A) (A) (A) (A) (A) (A) (A) (A)
                 (A) (A) (A) (A) (A) (A) (A) (A) (A) (A) (A) (A)
                 (A) (A) (A) (A) (A) (A) (A) (A) (A) (A) (A) (A)
                 (A) (A) (A) (A) (A) (A) (A) (A) (A) (A) (A) (A)
                 (A) (A) (A) (A) (A) (A) (A) (A) (A) (A) (A) (A)
                 (A) (A) (A) (A) (A) (A) (A) (A) (A) (A) (A) (A)
                 (A) (A) (A) (A) (A) (A) (A) (A) (A) (A) (A) (A)
                 (A) (A) (A) (A) (A) (A) (A) (A) (A) (A) (A) (A)
                 (A) (A) (A) (A) (A) (A) (A) (A) (A) (A) (A) (A)
                 (A) (A) (A) (A) (A) (A) (A) (A) (A) (A) (A) (A)
                 (A) (A) (A) (A) (A) (A) (A) (A) (A) (A) (A) (A)
                 (A) (A) (A) (A) (A) (A) (A) (A) (A) (A) (A) (A)
                 (A) (A) (A) (A) (A) (A) (A) (A) (A) (A) (A) (A)
                 (A) (A) (A) (A) (A) (A) (A) (A) (A) (A) (A) (A)
                 (A) (A) (A) (A) (A) (A) (A) (A) (A) (A) (A) (A)
                 (A) (A) (A) (A) (A) (A) (A) (A) (A) (A) (A) (A)
                 (A) (A) (A) (A) (A) (A) (A) (A) (A) (A) (A) (A)
                 (A) (A) (A) (A) (A) (A) (A) (A) (A) (A) (A) (A)
                 (A) (A) (A) (A) (A) (A) (A) (A) (A) (A) (A) (A)
                 (A) (A) (A) (A) (A) (A) (A) (A) (A) (A) (A) (A)
                 (A) (A) (A) (A) (A) (A) (A) (A) (A) (A) (A) (A)
                 (A) (A) (A) (A) (A) (A) (A) (A) (A) (A) (A) (A)
                 (A) (A) (A) (A) (A) (A) (A) (A) (A) (A) (A) (A)
                 (A) (A) (A) (A) (A) (A) (A) (A) (A) (A) (A) (A)
                 (A) (A) (A) (A) (A) (A) (A) (A) (A) (A) (A) (A)
                 (A) (A) (A) (A) (A) (A) (A) (A) (A) (A) (A) (A)
                 (A) (A) (A) (A) (A) (A) (A) (A) (A) (A) (A) (A)
                 (A) (A) (A) (A) (A) (A) (A) (A) (A) (A) (A) (A)
                 (A) (A) (A) (A) (A) (A) (A) (A) (A) (A) (A) (A)
                 (A) (A) (A) (A) (A) (A) (A) (A) (A) (A) (A) (A)
                 (A) (A) (A) (A) (A) (A) (A) (A) (A) (A) (A) (A)
                 (A) (A) (A) (A) (A) (A) (A) (A) (A) (A) (A) (A)
                 (A) (A) (A) (A) (A) (A) (A) (A) (A) (A) (A) (A)
                 (A) (A) (A) (A) (A) (A) (A) (A) (A) (A) (A) (A)
                 (A) (A) (A) (A) (A) (A) (A) (A) (A) (A) (A) (A)
                 (A) (A) (A) (A) (A) (A) (A) (A) (A) (A) (A) (A)
                 (A) (A) (A) (A) (A) (A) (A) (A) (A) (A) (A) (A)
                 (A) (A) (A) (A) (A) (A) (A) (A) (A) (A) (A) (A)
                 (A) (A) (A) (A) (A) (A) (A) (A) (A) (A) (A) (A)
                 (A) (A) (A) (A) (A) (A) (A) (A) (A) (A) (A) (A)
                 (A) (A) (A) (A) (A) (A) (A) (A) (A) (A) (A) (A)
                 (A) (A) (A) (A) (A) (A) (A) (A) (A) (A) (A) (A)
                 (A) (A) (A) (A) (A) (A) (A) (A) (A) (A) (A) (A)
                 (A) (A) (A) (A) (A) (A) (A) (A) (A) (A) (A) (A)
                 (A) (A) (A) (A) (A) (A) (A) (A) (A) (A) (A) (A)
                 (A) (A) (A) (A) (A) (A) (A) (A) (A) (A) (A) (A)
                 (A) (A) (A) (A) (A) (A) (A) (A) (A) (A) (A) (A)
                 (A)
 Beta  Orbitals:
       Occupied  (A) (A) (A) (A) (A) (A) (A) (A) (A) (A) (A) (A)
                 (A) (A) (A) (A) (A) (A) (A) (A) (A) (A) (A) (A)
                 (A) (A) (A) (A) (A) (A) (A) (A) (A) (A) (A) (A)
                 (A) (A) (A) (A) (A) (A) (A) (A) (A) (A) (A) (A)
                 (A) (A) (A) (A) (A) (A) (A) (A) (A) (A) (A) (A)
                 (A) (A) (A) (A) (A) (A) (A) (A) (A) (A) (A) (A)
                 (A) (A) (A) (A) (A) (A) (A) (A) (A) (A) (A) (A)
                 (A) (A) (A) (A) (A) (A) (A) (A) (A) (A) (A) (A)
                 (A) (A) (A) (A) (A) (A) (A) (A) (A) (A) (A) (A)
                 (A) (A) (A) (A) (A) (A) (A) (A) (A) (A) (A) (A)
                 (A) (A) (A) (A) (A) (A) (A) (A) (A) (A)
       Virtual   (A) (A) (A) (A) (A) (A) (A) (A) (A) (A) (A) (A)
                 (A) (A) (A) (A) (A) (A) (A) (A) (A) (A) (A) (A)
                 (A) (A) (A) (A) (A) (A) (A) (A) (A) (A) (A) (A)
                 (A) (A) (A) (A) (A) (A) (A) (A) (A) (A) (A) (A)
                 (A) (A) (A) (A) (A) (A) (A) (A) (A) (A) (A) (A)
                 (A) (A) (A) (A) (A) (A) (A) (A) (A) (A) (A) (A)
                 (A) (A) (A) (A) (A) (A) (A) (A) (A) (A) (A) (A)
                 (A) (A) (A) (A) (A) (A) (A) (A) (A) (A) (A) (A)
                 (A) (A) (A) (A) (A) (A) (A) (A) (A) (A) (A) (A)
                 (A) (A) (A) (A) (A) (A) (A) (A) (A) (A) (A) (A)
                 (A) (A) (A) (A) (A) (A) (A) (A) (A) (A) (A) (A)
                 (A) (A) (A) (A) (A) (A) (A) (A) (A) (A) (A) (A)
                 (A) (A) (A) (A) (A) (A) (A) (A) (A) (A) (A) (A)
                 (A) (A) (A) (A) (A) (A) (A) (A) (A) (A) (A) (A)
                 (A) (A) (A) (A) (A) (A) (A) (A) (A) (A) (A) (A)
                 (A) (A) (A) (A) (A) (A) (A) (A) (A) (A) (A) (A)
                 (A) (A) (A) (A) (A) (A) (A) (A) (A) (A) (A) (A)
                 (A) (A) (A) (A) (A) (A) (A) (A) (A) (A) (A) (A)
                 (A) (A) (A) (A) (A) (A) (A) (A) (A) (A) (A) (A)
                 (A) (A) (A) (A) (A) (A) (A) (A) (A) (A) (A) (A)
                 (A) (A) (A) (A) (A) (A) (A) (A) (A) (A) (A) (A)
                 (A) (A) (A) (A) (A) (A) (A) (A) (A) (A) (A) (A)
                 (A) (A) (A) (A) (A) (A) (A) (A) (A) (A) (A) (A)
                 (A) (A) (A) (A) (A) (A) (A) (A) (A) (A) (A) (A)
                 (A) (A) (A) (A) (A) (A) (A) (A) (A) (A) (A) (A)
                 (A) (A) (A) (A) (A) (A) (A) (A) (A) (A) (A) (A)
                 (A) (A) (A) (A) (A) (A) (A) (A) (A) (A) (A) (A)
                 (A) (A) (A) (A) (A) (A) (A) (A) (A) (A) (A) (A)
                 (A) (A) (A) (A) (A) (A) (A) (A) (A) (A) (A) (A)
                 (A) (A) (A) (A) (A) (A) (A) (A) (A) (A) (A) (A)
                 (A) (A) (A) (A) (A) (A) (A) (A) (A) (A) (A) (A)
                 (A) (A) (A) (A) (A) (A) (A) (A) (A) (A) (A) (A)
                 (A) (A) (A) (A) (A) (A) (A) (A) (A) (A) (A) (A)
                 (A) (A) (A) (A) (A) (A) (A) (A) (A) (A) (A) (A)
                 (A) (A) (A) (A) (A) (A) (A) (A) (A) (A) (A) (A)
                 (A) (A) (A) (A) (A) (A) (A) (A) (A) (A) (A) (A)
                 (A) (A) (A) (A) (A) (A) (A) (A) (A) (A) (A) (A)
                 (A) (A) (A) (A) (A) (A) (A) (A) (A) (A) (A) (A)
                 (A) (A) (A) (A) (A) (A) (A) (A) (A) (A) (A) (A)
                 (A) (A) (A) (A) (A) (A) (A) (A) (A) (A) (A) (A)
                 (A) (A) (A) (A) (A) (A) (A) (A) (A) (A) (A) (A)
                 (A) (A) (A) (A) (A) (A) (A) (A) (A) (A) (A) (A)
[...]
 3,0.00000091,-0.00000011,0.00000190,-0.00000171,0.00000282,-0.00000338
 ,-0.00000067,0.00000220,-0.00000046,-0.00000084,-0.00000019,-0.0000009
 0,0.00000027,-0.00000047,0.00000063,0.00000061,0.00000049,0.00000030,0
 .00000108,0.00000031,0.00000057,-0.00000087,0.00000058,-0.00000071,0.0
 0000044,-0.00000159,0.00000192,0.00000090,0.00000016,0.00000099,-0.000
 00756,-0.00001022,-0.00000386,0.00000193,-0.00001407,-0.00000190,-0.07
 101714,-0.20383038,-0.04916283,0.06467328,-0.21805715,-0.05541420,-0.0
 1382748,-0.06129064,-0.02294174,-0.04106790,0.03431411,0.01142217,0.04
 660461,0.02779886,0.00859379,0.00543390,-0.06201280,-0.02331343,0.0269
 9847,0.01163159,0.00207532,-0.00109142,0.00067861,0.00076124,0.0009506
 9,-0.01320649,-0.00610298,-0.00194495,-0.01295648,-0.00597805,0.001260
 46,0.00062333,0.00071473,-0.02572609,0.01471706,0.00351597,-0.01823596
 ,0.00817989,0.00350576,-0.00024872,-0.00041668,-0.00040210,0.00074193,
 0.00042245,0.00006240,0.01938036,0.00652448,0.00268208,-0.00063720,0.0
 0035523,0.00004716,0.00012872,-0.00032189,-0.00036684,-0.00026214,0.00
 014857,0.00032520,0.00027553,0.00012302,0.00031230,0.00142969,0.593213
 31,0.00001471,0.00013398,-0.00141450,0.00182666,0.00532487,0.00019878,
 0.02176734,-0.00070622,0.00412500,0.00348929,0.00298943,-0.07207265,-0
 .02041565,0.00081395,0.00530224,-0.00144734,0.00543382,0.00032687,-0.0
 0004493,-0.00063524,-0.00003931,0.00015971,0.00000708,-0.00008124,-0.0
 0019394,0.00000158,-0.00005783,0.00000843,-0.00000873,0.00016570,0.000
 18130,-0.00001467,-0.00005422,-0.00016271,0.00000429,-0.00005722,0.000
 91024,-0.00004244,0.00012187,0.00026057,-0.00245518,-0.00082032,-0.000
 56441,-0.00235058,-0.00083449,-0.00090196,0.00005744,0.00016949,0.0000
 0562,0.00003961,0.00002637,0.00000212,0.00003724,0.00002700,-0.0000026
 4,0.00001328,0.00000158,0.00000277,0.00000540,-0.00000336,0.00000062,-
 0.00000236,-0.00000034,-0.00000173,-0.00000285,0.00000191,0.00000006,-
 0.00000146,0.00000019,0.00000204,0.00000154,0.00000045,-0.00000082,0.0
 0000147,-0.00000093,-0.00000084,-0.00000099,0.00000266,-0.00000095,-0.
 00000026,0.00000052,-0.00000192,-0.00000278,0.00000446,0.00000041,0.00
 000083,0.00000092,-0.00000185,0.00000163,-0.00000139,-0.00000086,-0.00
 000015,0.00000035,-0.00000010,-0.00000138,0.00000114,-0.00000027,0.000
 00061,0.00000097,0.00000117,-0.00000089,-0.00000047,0.00000011,-0.0000
 0016,-0.00000059,-0.00000113,-0.00000073,0.00000009,0.00000020,0.00000
 020,-0.00000108,-0.00000099,-0.00000156,-0.00000101,0.00000057,-0.0000
 0010,-0.00000040,0.00000102,-0.00000028,-0.00000136,-0.00000023,-0.000
 00051,-0.00000087,0.00000074,-0.00000873,-0.00000214,-0.00000413,-0.00
 001099,-0.00000100,-0.02536992,-0.04856317,-0.07704142,0.02462783,-0.0
 5471463,-0.07970822,-0.00550854,-0.02324281,-0.00529139,-0.01392195,0.
 01086184,0.00720077,0.01619694,0.00826016,0.00611275,0.00229449,-0.023
 50833,-0.00543596,0.00994753,0.00242607,0.00508488,-0.00046484,0.00099
 129,-0.00191841,0.00031718,-0.00607868,0.00180567,-0.00055295,-0.00598
 088,0.00185388,0.00049358,0.00095302,-0.00195638,-0.00945481,0.0036423
 0,0.00564532,-0.00645132,0.00311432,0.00110778,-0.00009581,-0.00034793
 ,0.00027519,0.00026150,0.00005186,0.00021555,0.00691500,0.00253461,0.0
 0081832,-0.00021661,0.00000990,0.00020341,0.00004535,-0.00029932,0.000
 29369,-0.00010611,0.00031588,-0.00065121,0.00009847,0.00030590,-0.0006
 5595,-0.00305825,0.13659002,0.21383953,0.00005622,-0.00001126,0.000010
 28,-0.00012001,-0.00013732,-0.00002329,-0.00024783,0.00039946,-0.00015
 839,-0.00023561,-0.00002582,0.00000129,-0.00028506,-0.00034807,0.00018
 417,-0.00007818,0.00015501,0.00001270,0.00001329,0.00000009,-0.0000004
 6,-0.00002471,0.00001812,-0.00002134,-0.00000876,-0.00000159,-0.000016
 20,-0.00000090,0.00000887,-0.00000100,-0.00000804,-0.00000153,0.000014
 85,-0.00002398,-0.00001657,0.00002288,-0.00006423,-0.00001826,-0.00000
 366,0.00006346,0.00005084,0.00000724,0.00004940,-0.00004585,-0.0000181
 1,-0.00006171,0.00001928,0.00000260,0.00000862,-0.00000409,-0.00000769
 ,0.00000887,0.00000402,0.00000727,-0.00000187,0.00000756,0.00001203,-0
 .00000155,0.00001073,-0.00001572,-0.00000011,-0.00001131,-0.00000048,-
 0.00000765,-0.00000637,0.00000381,-0.00000028,-0.00000060,-0.00000097,
 0.00000111,0.00000479,0.00000109,0.00000132,0.00000519,0.00000156,-0.0
 0000189,-0.00000295,0.00000271,-0.00000163,-0.00000095,0.00000220,0.00
 000400,-0.00001593,0.00001266,-0.00000673,0.00000429,-0.00000387,-0.00
 000175,0.00000976,-0.00000564,0.00000103,-0.00000666,0.00000171,-0.000
 00021,0.00000208,0.00000271,-0.00000380,0.00000242,-0.00000612,-0.0000
 0009,0.00000281,-0.00000095,-0.00000209,-0.00000037,-0.00000231,-0.000
 00124,-0.00000163,0.00000141,0.00000150,0.00000094,-0.00000132,-0.0000
 0009,-0.00000323,-0.00000002,-0.00000128,0.00000087,-0.00000172,0.0000
 0191,-0.00000463,-0.00000029,0.00000108,-0.00000068,0.00000066,-0.0000
 0703,0.00000142,-0.00000374,-0.00000769,-0.00000041,0.00000443,-0.0206
 0480,0.02951220,0.01061548,-0.02839047,-0.02404215,-0.00828150,-0.0055
 2421,-0.00155579,-0.00044845,-0.17142888,0.10647060,0.03747291,-0.1921
 1538,-0.11457469,-0.03867186,-0.00518283,0.00062357,0.00022861,-0.0021
 9717,-0.00022176,-0.00001117,-0.00064615,0.00145758,0.00058025,0.01662
 318,-0.01178355,-0.00425990,0.01650829,0.00305323,0.00107434,-0.000740
 11,-0.00134357,-0.00052965,-0.00418094,0.00129234,0.00038970,-0.001463
 39,-0.00615453,-0.00212972,0.00018620,0.00004414,0.00001571,0.00070463
 ,-0.00164970,-0.00059294,0.00210255,0.00750667,0.00272442,0.00068630,0
 .00172234,0.00057908,0.00014745,-0.00002801,-0.00003255,0.00067770,-0.
 00127066,-0.00049343,0.00079315,0.00115431,0.00044337,-0.00050003,-0.0
 0246335,-0.00085586,0.72741199,-0.00000477,-0.00015818,0.00021486,-0.0
 0024998,0.00008025,-0.00012212,0.00005314,0.00024043,0.00012592,-0.000
 02289,-0.00085263,0.00031902,0.00000184,0.00027697,0.00011080,0.000259
 17,0.00004259,-0.00013513,0.00000032,0.00002799,0.00000965,-0.00000310
 ,0.00000441,0.00000192,0.00000486,-0.00000533,0.00000177,-0.00000008,-
 0.00000001,-0.00000435,-0.00000456,-0.00000498,0.00000064,0.00000600,0
 .00000573,-0.00000033,-0.00000689,-0.00004365,-0.00003927,0.00007436,0
 .00008440,-0.00007210,-0.00007464,0.00009599,-0.00006743,0.00000691,-0
 .00004607,-0.00003983,0.00000103,0.00000181,-0.00000060,-0.00000174,0.
 00000163,-0.00000131,-0.00000032,0.00000076,-0.00000037,-0.00000023,-0
 .00000138,0.00000128,0.00000004,0.00000086,-0.00000008,0.00000067,0.00
 000074,-0.00000077,-0.00000006,0.00000016,0.00000002,-0.00000029,-0.00
 000085,-0.00000039,0.00000005,-0.00000070,0.00000024,0.00000004,0.0000
 0050,-0.00000041,0.00000017,0.00000004,-0.00000007,0.00000063,0.000000
 41,-0.00000006,-0.00000023,-0.00000016,-0.00000054,-0.00000008,-0.0000
 0042,0.00000007,0.00000014,-0.00000021,-0.00000006,0.00000009,0.000000
 08,-0.00000007,0.00000010,0.00000016,-0.00000010,-0.00000022,0.0000003
 5,0.,0.00000011,0.00000001,0.00000017,0.00000037,0.00000021,-0.0000001
 3,-0.00000017,0.00000009,0.00000028,0.00000025,0.00000065,0.00000023,-
 0.00000015,0.,0.,-0.00000003,0.00000003,0.00000038,0.00000015,0.000000
 23,0.00000013,0.00000015,-0.00000040,0.00000013,0.00000048,-0.00000032
 ,-0.00000034,0.04798529,0.02705589,0.00784090,-0.04250411,0.03369629,0
 .01075804,-0.00255803,-0.01239969,-0.00588495,0.07729462,-0.24853705,-
 0.06565550,-0.08542583,-0.23083274,-0.05841852,0.00162554,-0.01269660,
 -0.00601013,0.01961286,0.00630282,0.00190372,-0.00051142,0.00044205,0.
 00006893,0.00419115,-0.06615711,-0.02440225,-0.01291686,-0.06605549,-0
 .02425332,0.00062288,0.00051843,0.00009498,-0.01855660,0.00799218,0.00
 274738,-0.02550495,0.01500831,0.00437480,0.00033110,0.00015555,0.00022
 121,0.00192641,0.00088433,0.00127133,0.02688430,0.01196378,0.00296317,
 -0.00185017,0.00090325,0.00130354,-0.00032019,0.00018867,0.00023908,0.
 00010242,-0.00034426,-0.00030038,-0.00022079,-0.00044139,-0.00033623,-
 0.00245706,-0.04617247,-0.01584334,-0.00028201,0.63611242,-0.00000307,
 -0.00008988,0.00009738,-0.00008574,0.00006477,-0.00008041,0.00019938,0
 .00005483,0.00006200,-0.00000836,0.00012664,-0.00083984,-0.00017742,0.
 00008901,0.00006276,0.00009178,0.00004970,-0.00008517,0.00000040,0.000
 01732,0.00001107,-0.00000284,-0.00000129,-0.00000333,-0.00000004,-0.00
 000212,0.00000129,-0.00000016,-0.00000164,0.00000060,0.00000056,-0.000
 00225,0.00000087,0.00000390,-0.00000095,-0.00000430,0.00000414,-0.0000
 1353,-0.00001173,0.00004497,0.00003657,-0.00004198,-0.00004589,0.00004
 295,-0.00003935,-0.00000301,-0.00001401,-0.00001163,0.00000126,0.00000
 228,0.00000057,-0.00000142,0.00000233,0.00000014,-0.00000016,0.0000019
 1,-0.00000017,0.00000074,0.00000024,0.,0.00000031,-0.00000023,0.000000
 39,0.00000067,-0.00000012,-0.00000021,0.00000025,0.00000002,0.00000017
 ,0.00000026,-0.00000018,0.00000045,-0.00000043,-0.00000006,-0.00000012
 ,0.00000029,-0.00000003,0.00000034,-0.00000053,0.00000004,0.00000005,-
 0.00000093,0.00000064,-0.00000068,-0.00000020,-0.00000048,0.00000028,-
 0.00000006,-0.00000028,0.00000066,-0.00000018,0.00000068,0.00000036,-0
 .00000036,-0.00000023,-0.00000003,-0.00000005,-0.00000024,0.00000077,0
 .00000027,-0.00000046,-0.00000032,0.00000052,0.00000011,0.00000003,-0.
 00000044,-0.00000025,-0.00000013,-0.00000024,0.00000019,-0.00000033,-0
 .00000020,0.00000006,-0.00000046,0.00000055,-0.00000025,0.00000007,0.0
 0000022,0.00000030,-0.00000029,-0.00000003,-0.00000002,-0.00000053,0.0
 0000128,-0.00000015,0.00000028,-0.00000102,-0.00000005,0.00000017,0.01
 715083,0.00768687,0.00761297,-0.01483296,0.01036853,0.00876174,-0.0007
 9714,-0.00588437,0.00196243,0.02692609,-0.06503802,-0.08324965,-0.0280
 6658,-0.05748548,-0.08025814,0.00057813,-0.00599763,0.00191581,0.00686
 412,0.00229223,0.00027749,-0.00016144,0.00010762,0.00023665,0.00129412
 ,-0.02440954,-0.00417382,-0.00448820,-0.02447900,-0.00416178,0.0002157
 8,0.00015318,0.00025284,-0.00646304,0.00287352,0.00057019,-0.00876702,
 0.00358382,0.00626583,0.00009388,0.00034022,-0.00068289,0.00058704,0.0
 0124971,-0.00222241,0.00930150,0.00244304,0.00574704,-0.00060363,0.001
 22807,-0.00222342,-0.00010041,0.00035059,-0.00067733,0.00003656,-0.000
 25432,0.00029088,-0.00008271,-0.00030382,0.00027275,-0.00086424,-0.016
 03432,-0.00618898,-0.00414468,0.17497350,0.18695890,0.00001037,-0.0000
 0056,-0.00000030,-0.00000109,0.00001663,0.00000272,-0.00002433,0.00000
 406,-0.00002186,0.00000232,0.00001182,-0.00000288,-0.00002714,-0.00000
 167,0.00002466,-0.00000309,-0.00001584,-0.00000397,0.00002719,-0.00000
 125,-0.00000113,-0.00001393,0.00000406,-0.00000090,-0.00000080,-0.0000
 0256,-0.00000574,-0.00000098,0.00000426,0.00000025,-0.00000055,0.00000
 101,0.00000456,-0.00001345,-0.00000353,0.00000181,-0.00000739,-0.00000
 460,0.00000343,0.00000506,-0.00000114,-0.00001248,0.00000522,0.0000008
 9,0.00001126,-0.00000747,0.00000507,-0.00000332,0.00000366,-0.00000002
 ,-0.00000493,0.00000371,-0.00000013,0.00000488,0.00000330,0.00000327,0
 .00000489,-0.00000158,0.00000563,-0.00000677,-0.00000066,-0.00000561,-
 0.00000021,-0.00000319,-0.00000295,0.00000033,-0.00000008,-0.00000034,
 -0.00000105,-0.00000025,0.00000176,0.00000043,0.00000088,0.00000223,0.
 00000164,-0.00000097,-0.00000063,0.00000075,-0.00000090,-0.00000024,0.
 00000171,0.00000163,-0.00000842,0.00000601,-0.00000284,0.00000263,-0.0
 0000078,-0.00000161,0.00000488,-0.00000276,-0.00000025,-0.00000341,0.0
 0000072,-0.00000005,0.00000132,0.00000194,-0.00000183,0.00000098,-0.00
 000241,0.00000062,0.00000126,-0.00000039,-0.00000105,-0.00000062,-0.00
 000159,-0.00000041,-0.00000124,0.00000102,0.00000112,0.00000069,-0.000
 00046,0.00000079,-0.00000099,0.00000007,-0.00000064,0.00000069,-0.0000
 0140,0.00000115,-0.00000253,-0.00000076,0.00000102,-0.00000045,0.00000
 021,-0.00000228,0.00000030,-0.00000207,-0.00000264,0.00000029,0.000002
 32,0.00132028,0.00250173,0.00088806,0.00091723,-0.00307677,-0.00101936
 ,-0.00078426,-0.00061330,-0.00021070,-0.01193567,-0.00102860,-0.000231
 10,-0.01457424,0.00258333,0.00098892,-0.00085821,0.00072366,0.00025918
 ,0.00024450,0.00006481,0.00000845,-0.00009530,0.00024002,0.00009842,0.
 00070454,-0.00191813,-0.00070942,0.00071898,0.00199201,0.00067312,-0.0
 0014370,-0.00026939,-0.00010548,0.00021904,-0.00006755,-0.00001473,0.0
 0001467,0.00031863,0.00011811,0.00005108,0.00003532,0.00001091,0.00060
 160,0.00075686,0.00025866,0.00003074,-0.00030270,-0.00011416,0.0006043
 8,-0.00084985,-0.00029585,0.00005395,-0.00004263,-0.00001328,-0.000009
 01,0.00006205,0.00002562,-0.00001456,-0.00006290,-0.00002214,0.0003695
 2,-0.00005803,-0.00002719,-0.33187293,0.01249081,0.00630501,0.35449079
 ,-0.00000053,-0.00000561,0.00001070,-0.00000867,-0.00001305,-0.0000079
 8,-0.00003858,0.00000168,-0.00001194,0.00001187,0.00003865,0.00045322,
 0.00004029,-0.00000172,-0.00001595,0.00000739,-0.00001232,-0.00000807,
 -0.00000109,0.00000348,0.00000052,-0.00000086,0.00000052,-0.00000071,0
 .00000103,0.00000017,0.00000108,-0.00000004,-0.00000041,-0.00000091,-0
 .00000088,0.00000009,0.00000065,0.00000221,0.00000074,-0.00000095,-0.0
 0000352,-0.00000228,-0.00000298,0.00000182,0.00000891,-0.00000919,-0.0
 0000189,0.00000900,-0.00001017,0.00000380,-0.00000308,-0.00000286,-0.0
 0000011,-0.00000074,0.00000058,-0.00000027,-0.00000067,0.00000016,-0.0
 0000020,0.00000005,-0.00000010,0.00000013,-0.00000027,0.00000030,0.000
 00010,0.00000019,0.00000011,0.00000036,0.00000007,-0.00000027,0.000000
 02,0.00000002,0.00000013,-0.00000002,-0.00000006,0.00000012,-0.0000000
 7,-0.00000014,0.,0.00000014,0.00000007,-0.00000003,-0.00000008,0.00000
 004,-0.00000005,-0.00000018,0.00000044,-0.00000034,-0.00000004,-0.0000
 0030,-0.00000004,0.00000005,-0.00000023,0.00000025,0.00000003,0.000000
 35,0.00000006,-0.00000003,-0.00000006,-0.00000004,0.00000004,-0.000000
 10,0.00000021,-0.00000001,-0.00000014,-0.00000006,0.00000014,0.0000000
 5,0.00000006,-0.00000010,-0.00000002,-0.00000003,-0.00000012,0.0000000
 1,-0.00000003,0.,0.00000009,-0.00000012,0.00000016,-0.00000006,0.00000
 010,-0.00000003,0.00000017,0.,-0.00000001,0.00000002,-0.00000010,0.000
 00036,-0.00000004,0.00000017,-0.00000013,-0.00000001,-0.00000002,0.000
 71265,-0.00366656,-0.00333598,-0.00128561,-0.00331768,-0.00320227,0.00
 141528,0.00031203,0.00003600,0.02700666,0.00245068,-0.00039707,-0.0254
 4799,0.00470532,0.00072938,-0.00130502,0.00037564,0.00007546,0.0001771
 5,0.00013712,0.00011557,0.00018429,-0.00035067,-0.00024161,0.00187549,
 0.00075212,0.00153999,-0.00180371,0.00074106,0.00155905,-0.00021436,-0
 .00030885,-0.00022305,-0.00017943,0.00015965,0.00012465,-0.00045381,0.
 00015761,0.00010788,-0.00006806,-0.00001441,-0.00001866,-0.00088115,-0
 .00030525,-0.00016837,0.00047008,0.00014346,0.00009763,0.00078883,-0.0
 0030794,-0.00017936,0.00006087,-0.00001677,-0.00002048,-0.00001442,0.0
 0002015,-0.00008246,0.00001387,0.00002454,-0.00008091,-0.00006004,-0.0
 0088483,-0.00009710,0.01249032,-0.05733936,-0.00812629,-0.01349433,0.0
 5650945,-0.00000063,0.00000202,-0.00002273,0.00002903,0.00003718,-0.00
 001552,0.00015702,-0.00001075,0.00006379,-0.00000292,0.00045240,-0.001
 05550,-0.00015303,0.00000376,0.00006980,-0.00002611,0.00004051,-0.0000
 1405,-0.00000072,-0.00000142,-0.00000055,0.00000297,-0.00000004,0.0000
 0051,-0.00000194,-0.00000006,-0.00000066,0.00000015,0.00000041,0.00000
 144,0.00000179,-0.00000027,-0.00000102,-0.00000239,0.00000037,0.000000
 54,0.00001549,0.00000138,0.00000114,0.00000551,-0.00001402,-0.00000213
 ,-0.00000714,-0.00001352,-0.00000241,-0.00001485,0.00000258,0.00000204
 ,-0.00000060,0.00000013,0.00000015,0.00000044,0.,-0.00000009,-0.000000
 08,-0.00000073,-0.00000008,-0.00000036,-0.00000050,0.00000044,-0.00000
 014,0.00000046,-0.00000022,-0.00000011,0.00000026,-0.00000009,-0.00000
 016,0.00000001,-0.00000003,-0.00000018,-0.00000009,-0.00000031,0.00000
 022,-0.00000017,0.00000006,-0.00000012,0.00000012,-0.00000026,0.000000
 34,0.,-0.00000009,0.00000053,-0.00000002,0.00000020,0.00000015,0.00000
 013,-0.00000022,0.00000004,-0.00000007,-0.00000027,0.00000012,-0.00000
 027,-0.00000023,0.00000023,0.00000009,-0.00000003,0.00000011,0.0000001
 2,-0.00000032,-0.00000019,0.00000025,0.00000018,-0.00000023,-0.0000000
 5,0.00000006,0.00000030,0.00000020,0.00000003,0.00000006,-0.00000011,0
 .00000024,0.00000014,0.00000011,0.00000027,-0.00000029,0.00000012,0.,-
 0.00000016,-0.00000007,0.00000022,0.00000002,0.00000006,0.00000030,-0.
 00000044,-0.00000014,-0.00000009,0.00000057,-0.00000019,-0.00000025,0.
 00017520,-0.00338534,0.00486444,-0.00031095,-0.00323555,0.00491884,0.0
 0049239,0.00005844,0.00013603,0.00951889,-0.00035262,0.00298065,-0.008
 76918,0.00041328,0.00336898,-0.00044277,0.00007148,0.00014709,0.000048
 98,0.00010566,-0.00015196,0.00003546,-0.00022820,0.00019344,0.00057847
 ,0.00158262,-0.00327266,-0.00061486,0.00154809,-0.00327581,-0.00004161
 ,-0.00021309,0.00019994,-0.00005587,0.00011326,-0.00014924,-0.00015976
 ,0.00009516,-0.00010085,-0.00002511,-0.00002210,0.00004019,-0.00028925
 ,-0.00019098,0.00018128,0.00016231,0.00009395,-0.00010266,0.00025091,-
 0.00018051,0.00018164,0.00002246,-0.00002253,0.00003970,0.00000136,-0.
 00008894,0.00023258,0.00000164,-0.00008611,0.00023369,-0.00002353,-0.0
 0001107,-0.00064068,0.00631089,-0.00795762,-0.03640675,-0.00686847,0.0
 1139253,0.02735783\\-0.00000099,-0.00000113,-0.00000040,-0.00000025,0.
 00000077,-0.00000038,-0.00000132,0.00000207,0.00000228,0.00000227,0.00
 000106,-0.00000196,0.00000053,0.00000244,0.00000247,-0.00000039,-0.000
 00051,0.00000037,0.00000119,0.00000029,0.00000016,0.00000071,-0.000000
 29,0.00000073,0.00000042,-0.00000133,0.00000145,0.00043126,-0.00748538
 ,0.00308314,-0.00042721,0.00833897,-0.00003018,-0.00000166,0.00000069,
 -0.00000014,0.00000049,-0.00000039,0.00000020,-0.00000041,0.00000016,0
 .00000049,-0.00000009,0.00000030,-0.00000032,0.00000041,-0.00000016,-0
 .00000046,0.00000024,0.00000026,-0.00000014,-0.00000006,-0.00000054,-0
 .00000015,-0.00510634,-0.00595578,-0.00899935,0.00693675,0.00208299,0.
 00995409,-0.00470209,0.00033159,-0.00372870,-0.00000415,-0.00000885,0.
 00000520,-0.00000105,-0.00000244,0.00000115,0.00000520,0.00000335,-0.0
 0000523,0.00000062,0.00000107,-0.00000085,-0.00000312,0.00000193,0.000
 00302,0.00000040,0.00000054,0.00000005,0.00883118,0.00201973,-0.005624
 69,-0.00000175,0.00000323,-0.00000386,-0.00595786,0.00067010,0.0053465
 4,0.00000417,-0.00000138,0.00000461,-0.00000335,0.00000393,-0.00000470
 ,-0.00000171,-0.00000557,-0.00000122,-0.00000119,-0.00000024,-0.000001
 32,0.00000028,-0.00000012,-0.00000007,0.00000045,-0.00000027,0.0000002
 4,-0.00000054,0.00000061,-0.00000009,-0.00000073,-0.00000014,0.0000006
 9,0.00000009,0.00000065,0.00000007,0.00000018,-0.00000118,0.00000012,0
 .00000020,0.00000105,-0.00000064,-0.00000031,-0.00000027,0.00000019,0.
 00000008,0.00000022,-0.00000030,-0.00000053,-0.00000017,-0.00000076,0.
 00000139,-0.00000170,0.00000052,0.00000022,-0.00000169,-0.00000201,-0.
 00000063,-0.00000003,-0.00000026,0.00000098,-0.00000012,-0.00000027,-0
 .00000037,-0.00000221,-0.00000220,0.00000012,0.00000013,-0.00000006,-0
 .00000183,-0.00000044,-0.00000062,-0.00000015,0.00000002,-0.00000017,-
 0.00000008,-0.00000021,0.00000006,0.00000174,-0.00000088,-0.00000079,0
 .00000045,-0.00000033,0.00000027,-0.00000007,0.00000032,-0.00000002,-0
 .00000022,0.,-0.00000018,-0.00000010,0.00000012,-0.00000018,0.00000006
 ,0.00000028,0.00000055,-0.00000004,0.00000002,0.00000010,0.00000017,-0
 .00000016,0.00000040,-0.00000011,0.00000023,-0.00000036,0.00000006,0.0
 0000009,0.00000019,-0.00000139,0.00000473,0.00000378,-0.00000009,-0.00
 000035,0.00000016,-0.00000009,0.00000031,-0.00000023\\\@
 The archive entry for this job was punched.


 I take a simple view of life: keep your eyes open and get on with it.
 -- Laurence Olivier
 Job cpu time:       0 days 20 hours 37 minutes 24.8 seconds.
 Elapsed time:       0 days  0 hours 51 minutes 37.3 seconds.
 File lengths (MBytes):  RWF=   6471 Int=      0 D2E=      0 Chk=     61 Scr=      2
 Normal termination of Gaussian 16 at Fri Aug 15 22:12:22 2025.
