 Entering Gaussian System, Link 0=g16
 Input=molecule.gjf
 Output=molecule.log
 Initial command:
 /share/apps/softwares/gaussian/16/g16/l1.exe "/share/home/kae/gaussian/others/hecc/250314_1/Gau-11138.inp" -scrdir="/share/home/kae/gaussian/others/hecc/250314_1/"
 Entering Link 1 = /share/apps/softwares/gaussian/16/g16/l1.exe PID=     11139.
  
 Copyright (c) 1988-2019, Gaussian, Inc.  All Rights Reserved.
  
 This is part of the Gaussian(R) 16 program.  It is based on
 the Gaussian(R) 09 system (copyright 2009, Gaussian, Inc.),
 the Gaussian(R) 03 system (copyright 2003, Gaussian, Inc.),
 the Gaussian(R) 98 system (copyright 1998, Gaussian, Inc.),
 the Gaussian(R) 94 system (copyright 1995, Gaussian, Inc.),
 the Gaussian 92(TM) system (copyright 1992, Gaussian, Inc.),
 the Gaussian 90(TM) system (copyright 1990, Gaussian, Inc.),
 the Gaussian 88(TM) system (copyright 1988, Gaussian, Inc.),
 the Gaussian 86(TM) system (copyright 1986, Carnegie Mellon
 University), and the Gaussian 82(TM) system (copyright 1983,
 Carnegie Mellon University). Gaussian is a federally registered
 trademark of Gaussian, Inc.
  
 This software contains proprietary and confidential information,
 including trade secrets, belonging to Gaussian, Inc.
  
 This software is provided under written license and may be
 used, copied, transmitted, or stored only in accord with that
 written license.
  
 The following legend is applicable only to US Government
 contracts under FAR:
  
                    RESTRICTED RIGHTS LEGEND
  
 Use, reproduction and disclosure by the US Government is
 subject to restrictions as set forth in subparagraphs (a)
 and (c) of the Commercial Computer Software - Restricted
 Rights clause in FAR 52.227-19.
  
 Gaussian, Inc.
 340 Quinnipiac St., Bldg. 40, Wallingford CT 06492
  
  
 ---------------------------------------------------------------
 Warning -- This program may not be used in any manner that
 competes with the business of Gaussian, Inc. or will provide
 assistance to any competitor of Gaussian, Inc.  The licensee
 of this program is prohibited from giving any competitor of
 Gaussian, Inc. access to this program.  By using this program,
 the user acknowledges that Gaussian, Inc. is engaged in the
 business of creating and licensing software in the field of
 computational chemistry and represents and warrants to the
 licensee that it is not a competitor of Gaussian, Inc. and that
 it will not use this program in any manner prohibited above.
 ---------------------------------------------------------------
  

 Cite this work as:
 Gaussian 16, Revision C.01,
 M. J. Frisch, G. W. Trucks, H. B. Schlegel, G. E. Scuseria, 
 M. A. Robb, J. R. Cheeseman, G. Scalmani, V. Barone, 
 G. A. Petersson, H. Nakatsuji, X. Li, M. Caricato, A. V. Marenich, 
 J. Bloino, B. G. Janesko, R. Gomperts, B. Mennucci, H. P. Hratchian, 
 J. V. Ortiz, A. F. Izmaylov, J. L. Sonnenberg, D. Williams-Young, 
 F. Ding, F. Lipparini, F. Egidi, J. Goings, B. Peng, A. Petrone, 
 T. Henderson, D. Ranasinghe, V. G. Zakrzewski, J. Gao, N. Rega, 
 G. Zheng, W. Liang, M. Hada, M. Ehara, K. Toyota, R. Fukuda, 
 J. Hasegawa, M. Ishida, T. Nakajima, Y. Honda, O. Kitao, H. Nakai, 
 T. Vreven, K. Throssell, J. A. Montgomery, Jr., J. E. Peralta, 
 F. Ogliaro, M. J. Bearpark, J. J. Heyd, E. N. Brothers, K. N. Kudin, 
 V. N. Staroverov, T. A. Keith, R. Kobayashi, J. Normand, 
 K. Raghavachari, A. P. Rendell, J. C. Burant, S. S. Iyengar, 
 J. Tomasi, M. Cossi, J. M. Millam, M. Klene, C. Adamo, R. Cammi, 
 J. W. Ochterski, R. L. Martin, K. Morokuma, O. Farkas, 
 J. B. Foresman, and D. J. Fox, Gaussian, Inc., Wallingford CT, 2019.
 
 ******************************************
 Gaussian 16:  ES64L-G16RevC.01  3-Jul-2019
                14-Mar-2025 
 ******************************************
 %mem=56GB
 %nprocshared=24
 Will use up to   24 processors via shared memory.
 %chk=molecule.chk
 -----------------------------------------------
 #p opt=recalc=5 freq Ub3lyp/6-31g(d,p) em=gd3bj
 -----------------------------------------------
 1/10=4,18=20,19=15,26=3,38=1,71=5/1,3;
 2/9=110,12=2,17=6,18=5,40=1/2;
 3/5=1,6=6,7=101,11=2,25=1,30=1,71=2,74=-5,116=2,124=41,140=1/1,2,3;
 4//1;
 5/5=2,38=5/2;
 8/6=4,10=90,11=11/1;
 11/6=1,8=1,9=11,15=111,16=1/1,2,10;
 10/6=1,13=1/2;
 6/7=2,8=2,9=2,10=2,28=1/1;
 7/10=1,25=1/1,2,3,16;
 1/10=4,18=20,19=15,26=3,71=5/3(3);
 2/9=110/2;
 7/9=1,25=1,44=-1/16;
 99//99;
 2/9=110/2;
 3/5=1,6=6,7=101,11=2,25=1,30=1,71=2,74=-5,116=2,124=41,140=1/1,2,3;
 4/5=5,16=3,69=1/1;
 5/5=2,38=5/2;
 8/6=4,10=90,11=11/1;
 11/6=1,8=1,9=11,15=111,16=1/1,2,10;
 10/6=1,13=1/2;
 7/10=1,25=1/1,2,3,16;
 1/18=20,19=15,26=3,71=5/3(-8);
 2/9=110/2;
 6/7=2,8=2,9=2,10=2,19=2,28=1/1;
 7/9=1,25=1,44=-1/16;
 99/9=1/99;
 Leave Link    1 at Fri Mar 14 09:15:01 2025, MaxMem=  7516192768 cpu:               1.6 elap:               0.2
 (Enter /share/apps/softwares/gaussian/16/g16/l101.exe)
 --------
 molecule
 --------
 Symbolic Z-matrix:
 Charge =  0 Multiplicity = 2
 C                     2.5751   -0.08147  -0.00593 
 C                     3.28203   0.96974   0.59852 
 C                     4.67264   0.99199   0.58833 
 C                     5.40473  -0.03425  -0.02477 
 C                     4.69915  -1.08462  -0.6281 
 C                     3.30858  -1.10886  -0.61966 
 C                     1.09734  -0.10605   0.00384 
 C                     0.37615   0.38278   1.10234 
 C                    -1.00988   0.35563   1.10487 
 C                    -1.77121  -0.15647   0.02489 
 C                    -1.00992  -0.63854  -1.06468 
 C                     0.37809  -0.61821  -1.08323 
 H                     2.73762   1.78865   1.05765 
 H                     5.205     1.81514   1.05388 
 H                     5.25247  -1.88978  -1.10062 
 H                     2.7855   -1.94586  -1.07089 
 H                     0.89637   0.74301   1.98086 
 H                     0.89681  -0.96304  -1.96878 
 C                    -3.23998  -0.18574   0.04837 
 C                    -3.94708   1.05399   0.31256 
 C                    -5.17637   1.16022   1.00635 
 C                    -3.37631   2.2622   -0.14339 
 C                    -5.79635   2.38716   1.20046 
 C                    -3.98493   3.49188   0.04706 
 H                    -2.44033   2.22199  -0.68569 
 C                    -5.21374   3.5597    0.71971 
 H                    -6.73028   2.43969   1.745 
 C                    -3.94496  -1.4319   -0.26883 
 C                    -3.62786  -2.65703   0.36191 
 C                    -4.97403  -1.50022  -1.23874 
 C                    -4.27275  -3.85255   0.06529 
 C                    -5.63914  -2.67784  -1.55478 
 C                    -5.27852  -3.8486   -0.89481 
 H                    -4.00576  -4.76146   0.58771 
 H                    -6.41037  -2.68272  -2.3134 
 H                    -6.02894   5.07286   0.98642 
 H                    -5.94172  -0.23226   1.7417 
 H                    -3.20748   4.9255   -0.57088 
 H                    -6.10408  -5.34116  -1.28107 
 H                    -2.43626  -2.71497   1.64441 
 H                    -5.42001  -0.08536  -2.17001 
 H                    -1.80764  -1.21619  -2.51821 
 H                    -1.80685   0.88476   2.57476 
 C                     7.61639  -0.93791   0.74722 
 C                     7.574     0.94323  -0.82631 
 C                     6.97505  -1.90146   1.58877 
 C                     9.06016  -0.91271   0.7277 
 C                     9.01793   0.96685  -0.82623 
 C                     6.88922   1.88445  -1.65884 
 C                     7.70463  -2.78927   2.33393 
 H                     5.89274  -1.9164    1.63451 
 C                     9.78204  -1.85904   1.51789 
 C                     9.69672   1.93694  -1.62577 
 H                     5.80651   1.86291  -1.68991 
 C                     7.57827   2.79631  -2.41347 
 C                     9.1276   -2.77447   2.29583 
 H                     7.19527  -3.51009   2.96606 
 H                     10.86765  -1.83126   1.4879 
 C                     9.0013    2.82962  -2.39453 
 H                     10.78296   1.94593  -1.61033 
 H                     7.03637   3.49952  -3.03834 
 H                     9.68806  -3.48763   2.89214 
 H                     9.52926   3.5613   -2.99803 
 C                     6.89377  -0.00922  -0.03484 
 C                     9.72011   0.03858  -0.05386 
 H                     10.80697   0.05698  -0.06115 
 
 Add virtual bond connecting atoms H36        and C26        Dist= 3.29D+00.
 Add virtual bond connecting atoms H38        and C24        Dist= 3.30D+00.
 Add virtual bond connecting atoms H39        and C33        Dist= 3.30D+00.
 Add virtual bond connecting atoms H37        and C21        Dist= 3.31D+00.
 Add virtual bond connecting atoms H41        and C30        Dist= 3.31D+00.
 Add virtual bond connecting atoms H40        and C29        Dist= 3.31D+00.
 Add virtual bond connecting atoms H43        and C9         Dist= 3.31D+00.
 Add virtual bond connecting atoms H42        and C11        Dist= 3.32D+00.
 ITRead=  0  0  0  0  0  0  0  0  0  0  0  0  0  0  0  0  0  0  0  0
 ITRead=  0  0  0  0  0  0  0  0  0  0  0  0  0  0  0  0  0  0  0  0
 ITRead=  0  0  0  0  0  0  0  0  0  0  0  0  0  0  0  0  0  0  0  0
 ITRead=  0  0  0  0  0  0
 MicOpt= -1 -1 -1 -1 -1 -1 -1 -1 -1 -1 -1 -1 -1 -1 -1 -1 -1 -1 -1 -1
 MicOpt= -1 -1 -1 -1 -1 -1 -1 -1 -1 -1 -1 -1 -1 -1 -1 -1 -1 -1 -1 -1
 MicOpt= -1 -1 -1 -1 -1 -1 -1 -1 -1 -1 -1 -1 -1 -1 -1 -1 -1 -1 -1 -1
 MicOpt= -1 -1 -1 -1 -1 -1
 NAtoms=     66 NQM=       66 NQMF=       0 NMMI=      0 NMMIF=      0
                NMic=       0 NMicF=      0.
                    Isotopes and Nuclear Properties:
 (Nuclear quadrupole moments (NQMom) in fm**2, nuclear magnetic moments (NMagM)
  in nuclear magnetons)

  Atom         1           2           3           4           5           6           7           8           9          10
 IAtWgt=          12          12          12          12          12          12          12          12          12          12
 AtmWgt=  12.0000000  12.0000000  12.0000000  12.0000000  12.0000000  12.0000000  12.0000000  12.0000000  12.0000000  12.0000000
 NucSpn=           0           0           0           0           0           0           0           0           0           0
 AtZEff=  -0.0000000  -0.0000000  -0.0000000  -0.0000000  -0.0000000  -0.0000000  -0.0000000  -0.0000000  -0.0000000  -0.0000000
 NQMom=    0.0000000   0.0000000   0.0000000   0.0000000   0.0000000   0.0000000   0.0000000   0.0000000   0.0000000   0.0000000
 NMagM=    0.0000000   0.0000000   0.0000000   0.0000000   0.0000000   0.0000000   0.0000000   0.0000000   0.0000000   0.0000000
 AtZNuc=   6.0000000   6.0000000   6.0000000   6.0000000   6.0000000   6.0000000   6.0000000   6.0000000   6.0000000   6.0000000

  Atom        11          12          13          14          15          16          17          18          19          20
 IAtWgt=          12          12           1           1           1           1           1           1          12          12
 AtmWgt=  12.0000000  12.0000000   1.0078250   1.0078250   1.0078250   1.0078250   1.0078250   1.0078250  12.0000000  12.0000000
 NucSpn=           0           0           1           1           1           1           1           1           0           0
 AtZEff=  -0.0000000  -0.0000000  -0.0000000  -0.0000000  -0.0000000  -0.0000000  -0.0000000  -0.0000000  -0.0000000  -0.0000000
 NQMom=    0.0000000   0.0000000   0.0000000   0.0000000   0.0000000   0.0000000   0.0000000   0.0000000   0.0000000   0.0000000
 NMagM=    0.0000000   0.0000000   2.7928460   2.7928460   2.7928460   2.7928460   2.7928460   2.7928460   0.0000000   0.0000000
 AtZNuc=   6.0000000   6.0000000   1.0000000   1.0000000   1.0000000   1.0000000   1.0000000   1.0000000   6.0000000   6.0000000

  Atom        21          22          23          24          25          26          27          28          29          30
 IAtWgt=          12          12          12          12           1          12           1          12          12          12
 AtmWgt=  12.0000000  12.0000000  12.0000000  12.0000000   1.0078250  12.0000000   1.0078250  12.0000000  12.0000000  12.0000000
 NucSpn=           0           0           0           0           1           0           1           0           0           0
 AtZEff=  -0.0000000  -0.0000000  -0.0000000  -0.0000000  -0.0000000  -0.0000000  -0.0000000  -0.0000000  -0.0000000  -0.0000000
 NQMom=    0.0000000   0.0000000   0.0000000   0.0000000   0.0000000   0.0000000   0.0000000   0.0000000   0.0000000   0.0000000
 NMagM=    0.0000000   0.0000000   0.0000000   0.0000000   2.7928460   0.0000000   2.7928460   0.0000000   0.0000000   0.0000000
 AtZNuc=   6.0000000   6.0000000   6.0000000   6.0000000   1.0000000   6.0000000   1.0000000   6.0000000   6.0000000   6.0000000

  Atom        31          32          33          34          35          36          37          38          39          40
 IAtWgt=          12          12          12           1           1           1           1           1           1           1
 AtmWgt=  12.0000000  12.0000000  12.0000000   1.0078250   1.0078250   1.0078250   1.0078250   1.0078250   1.0078250   1.0078250
 NucSpn=           0           0           0           1           1           1           1           1           1           1
 AtZEff=  -0.0000000  -0.0000000  -0.0000000  -0.0000000  -0.0000000  -0.0000000  -0.0000000  -0.0000000  -0.0000000  -0.0000000
 NQMom=    0.0000000   0.0000000   0.0000000   0.0000000   0.0000000   0.0000000   0.0000000   0.0000000   0.0000000   0.0000000
 NMagM=    0.0000000   0.0000000   0.0000000   2.7928460   2.7928460   2.7928460   2.7928460   2.7928460   2.7928460   2.7928460
 AtZNuc=   6.0000000   6.0000000   6.0000000   1.0000000   1.0000000   1.0000000   1.0000000   1.0000000   1.0000000   1.0000000

  Atom        41          42          43          44          45          46          47          48          49          50
 IAtWgt=           1           1           1          12          12          12          12          12          12          12
 AtmWgt=   1.0078250   1.0078250   1.0078250  12.0000000  12.0000000  12.0000000  12.0000000  12.0000000  12.0000000  12.0000000
 NucSpn=           1           1           1           0           0           0           0           0           0           0
 AtZEff=  -0.0000000  -0.0000000  -0.0000000  -0.0000000  -0.0000000  -0.0000000  -0.0000000  -0.0000000  -0.0000000  -0.0000000
 NQMom=    0.0000000   0.0000000   0.0000000   0.0000000   0.0000000   0.0000000   0.0000000   0.0000000   0.0000000   0.0000000
 NMagM=    2.7928460   2.7928460   2.7928460   0.0000000   0.0000000   0.0000000   0.0000000   0.0000000   0.0000000   0.0000000
 AtZNuc=   1.0000000   1.0000000   1.0000000   6.0000000   6.0000000   6.0000000   6.0000000   6.0000000   6.0000000   6.0000000

  Atom        51          52          53          54          55          56          57          58          59          60
 IAtWgt=           1          12          12           1          12          12           1           1          12           1
 AtmWgt=   1.0078250  12.0000000  12.0000000   1.0078250  12.0000000  12.0000000   1.0078250   1.0078250  12.0000000   1.0078250
 NucSpn=           1           0           0           1           0           0           1           1           0           1
 AtZEff=  -0.0000000  -0.0000000  -0.0000000  -0.0000000  -0.0000000  -0.0000000  -0.0000000  -0.0000000  -0.0000000  -0.0000000
 NQMom=    0.0000000   0.0000000   0.0000000   0.0000000   0.0000000   0.0000000   0.0000000   0.0000000   0.0000000   0.0000000
 NMagM=    2.7928460   0.0000000   0.0000000   2.7928460   0.0000000   0.0000000   2.7928460   2.7928460   0.0000000   2.7928460
 AtZNuc=   1.0000000   6.0000000   6.0000000   1.0000000   6.0000000   6.0000000   1.0000000   1.0000000   6.0000000   1.0000000

  Atom        61          62          63          64          65          66
 IAtWgt=           1           1           1          12          12           1
 AtmWgt=   1.0078250   1.0078250   1.0078250  12.0000000  12.0000000   1.0078250
 NucSpn=           1           1           1           0           0           1
 AtZEff=  -0.0000000  -0.0000000  -0.0000000  -0.0000000  -0.0000000  -0.0000000
 NQMom=    0.0000000   0.0000000   0.0000000   0.0000000   0.0000000   0.0000000
 NMagM=    2.7928460   2.7928460   2.7928460   0.0000000   0.0000000   2.7928460
 AtZNuc=   1.0000000   1.0000000   1.0000000   6.0000000   6.0000000   1.0000000
 Leave Link  101 at Fri Mar 14 09:15:02 2025, MaxMem=  7516192768 cpu:              10.2 elap:               0.5
 (Enter /share/apps/softwares/gaussian/16/g16/l103.exe)

 GradGradGradGradGradGradGradGradGradGradGradGradGradGradGradGradGradGrad
 Berny optimization.
 Initialization pass.
                           ----------------------------
                           !    Initial Parameters    !
                           ! (Angstroms and Degrees)  !
 --------------------------                            --------------------------
 ! Name  Definition              Value          Derivative Info.                !
 --------------------------------------------------------------------------------
 ! R1    R(1,2)                  1.4036         calculate D2E/DX2 analytically  !
 ! R2    R(1,6)                  1.4036         calculate D2E/DX2 analytically  !
 ! R3    R(1,7)                  1.478          calculate D2E/DX2 analytically  !
 ! R4    R(2,3)                  1.3908         calculate D2E/DX2 analytically  !
 ! R5    R(2,13)                 1.0853         calculate D2E/DX2 analytically  !
 ! R6    R(3,4)                  1.4018         calculate D2E/DX2 analytically  !
 ! R7    R(3,14)                 1.0852         calculate D2E/DX2 analytically  !
 ! R8    R(4,5)                  1.4018         calculate D2E/DX2 analytically  !
 ! R9    R(4,64)                 1.4893         calculate D2E/DX2 analytically  !
 ! R10   R(5,6)                  1.3908         calculate D2E/DX2 analytically  !
 ! R11   R(5,15)                 1.0852         calculate D2E/DX2 analytically  !
 ! R12   R(6,16)                 1.0853         calculate D2E/DX2 analytically  !
 ! R13   R(7,8)                  1.4021         calculate D2E/DX2 analytically  !
 ! R14   R(7,12)                 1.4005         calculate D2E/DX2 analytically  !
 ! R15   R(8,9)                  1.3863         calculate D2E/DX2 analytically  !
 ! R16   R(8,17)                 1.0827         calculate D2E/DX2 analytically  !
 ! R17   R(9,10)                 1.4171         calculate D2E/DX2 analytically  !
 ! R18   R(9,43)                 1.7538         calculate D2E/DX2 analytically  !
 ! R19   R(10,11)                1.4139         calculate D2E/DX2 analytically  !
 ! R20   R(10,19)                1.4693         calculate D2E/DX2 analytically  !
 ! R21   R(11,12)                1.3883         calculate D2E/DX2 analytically  !
 ! R22   R(11,42)                1.7558         calculate D2E/DX2 analytically  !
 ! R23   R(12,18)                1.0827         calculate D2E/DX2 analytically  !
 ! R24   R(19,20)                1.4514         calculate D2E/DX2 analytically  !
 ! R25   R(19,28)                1.4665         calculate D2E/DX2 analytically  !
 ! R26   R(20,21)                1.4155         calculate D2E/DX2 analytically  !
 ! R27   R(20,22)                1.4119         calculate D2E/DX2 analytically  !
 ! R28   R(21,23)                1.3883         calculate D2E/DX2 analytically  !
 ! R29   R(21,37)                1.7509         calculate D2E/DX2 analytically  !
 ! R30   R(22,24)                1.3852         calculate D2E/DX2 analytically  !
 ! R31   R(22,25)                1.0825         calculate D2E/DX2 analytically  !
 ! R32   R(23,26)                1.3948         calculate D2E/DX2 analytically  !
 ! R33   R(23,27)                1.0824         calculate D2E/DX2 analytically  !
 ! R34   R(24,26)                1.4025         calculate D2E/DX2 analytically  !
 ! R35   R(24,38)                1.744          calculate D2E/DX2 analytically  !
 ! R36   R(26,36)                1.7393         calculate D2E/DX2 analytically  !
 ! R37   R(28,29)                1.414          calculate D2E/DX2 analytically  !
 ! R38   R(28,30)                1.4158         calculate D2E/DX2 analytically  !
 ! R39   R(29,31)                1.3904         calculate D2E/DX2 analytically  !
 ! R40   R(29,40)                1.7516         calculate D2E/DX2 analytically  !
 ! R41   R(30,32)                1.3889         calculate D2E/DX2 analytically  !
 ! R42   R(30,41)                1.7516         calculate D2E/DX2 analytically  !
 ! R43   R(31,33)                1.3905         calculate D2E/DX2 analytically  !
 ! R44   R(31,34)                1.0818         calculate D2E/DX2 analytically  !
 ! R45   R(32,33)                1.3915         calculate D2E/DX2 analytically  !
 ! R46   R(32,35)                1.0818         calculate D2E/DX2 analytically  !
 ! R47   R(33,39)                1.7489         calculate D2E/DX2 analytically  !
 ! R48   R(44,46)                1.4311         calculate D2E/DX2 analytically  !
 ! R49   R(44,47)                1.4441         calculate D2E/DX2 analytically  !
 ! R50   R(44,64)                1.4129         calculate D2E/DX2 analytically  !
 ! R51   R(45,48)                1.4441         calculate D2E/DX2 analytically  !
 ! R52   R(45,49)                1.4311         calculate D2E/DX2 analytically  !
 ! R53   R(45,64)                1.4129         calculate D2E/DX2 analytically  !
 ! R54   R(46,50)                1.3696         calculate D2E/DX2 analytically  !
 ! R55   R(46,51)                1.0834         calculate D2E/DX2 analytically  !
 ! R56   R(47,52)                1.4287         calculate D2E/DX2 analytically  !
 ! R57   R(47,65)                1.3969         calculate D2E/DX2 analytically  !
 ! R58   R(48,53)                1.4287         calculate D2E/DX2 analytically  !
 ! R59   R(48,65)                1.3969         calculate D2E/DX2 analytically  !
 ! R60   R(49,54)                1.0834         calculate D2E/DX2 analytically  !
 ! R61   R(49,55)                1.3696         calculate D2E/DX2 analytically  !
 ! R62   R(50,56)                1.4236         calculate D2E/DX2 analytically  !
 ! R63   R(50,57)                1.0856         calculate D2E/DX2 analytically  !
 ! R64   R(52,56)                1.368          calculate D2E/DX2 analytically  !
 ! R65   R(52,58)                1.0864         calculate D2E/DX2 analytically  !
 ! R66   R(53,59)                1.368          calculate D2E/DX2 analytically  !
 ! R67   R(53,60)                1.0864         calculate D2E/DX2 analytically  !
 ! R68   R(55,59)                1.4235         calculate D2E/DX2 analytically  !
 ! R69   R(55,61)                1.0856         calculate D2E/DX2 analytically  !
 ! R70   R(56,62)                1.0855         calculate D2E/DX2 analytically  !
 ! R71   R(59,63)                1.0855         calculate D2E/DX2 analytically  !
 ! R72   R(65,66)                1.087          calculate D2E/DX2 analytically  !
 ! A1    A(2,1,6)              118.2473         calculate D2E/DX2 analytically  !
 ! A2    A(2,1,7)              120.8754         calculate D2E/DX2 analytically  !
 ! A3    A(6,1,7)              120.8772         calculate D2E/DX2 analytically  !
 ! A4    A(1,2,3)              120.8241         calculate D2E/DX2 analytically  !
 ! A5    A(1,2,13)             119.6471         calculate D2E/DX2 analytically  !
 ! A6    A(3,2,13)             119.5103         calculate D2E/DX2 analytically  !
 ! A7    A(2,3,4)              120.9077         calculate D2E/DX2 analytically  !
 ! A8    A(2,3,14)             119.9653         calculate D2E/DX2 analytically  !
 ! A9    A(4,3,14)             119.1258         calculate D2E/DX2 analytically  !
 ! A10   A(3,4,5)              118.2889         calculate D2E/DX2 analytically  !
 ! A11   A(3,4,64)             120.8515         calculate D2E/DX2 analytically  !
 ! A12   A(5,4,64)             120.8596         calculate D2E/DX2 analytically  !
 ! A13   A(4,5,6)              120.9101         calculate D2E/DX2 analytically  !
 ! A14   A(4,5,15)             119.122          calculate D2E/DX2 analytically  !
 ! A15   A(6,5,15)             119.9667         calculate D2E/DX2 analytically  !
 ! A16   A(1,6,5)              120.8218         calculate D2E/DX2 analytically  !
 ! A17   A(1,6,16)             119.6329         calculate D2E/DX2 analytically  !
 ! A18   A(5,6,16)             119.5261         calculate D2E/DX2 analytically  !
 ! A19   A(1,7,8)              120.9095         calculate D2E/DX2 analytically  !
 ! A20   A(1,7,12)             120.9596         calculate D2E/DX2 analytically  !
 ! A21   A(8,7,12)             118.1308         calculate D2E/DX2 analytically  !
 ! A22   A(7,8,9)              120.5895         calculate D2E/DX2 analytically  !
 ! A23   A(7,8,17)             120.3042         calculate D2E/DX2 analytically  !
 ! A24   A(9,8,17)             119.0412         calculate D2E/DX2 analytically  !
 ! A25   A(8,9,10)             122.8757         calculate D2E/DX2 analytically  !
 ! A26   A(8,9,43)             116.7413         calculate D2E/DX2 analytically  !
 ! A27   A(10,9,43)            120.2404         calculate D2E/DX2 analytically  !
 ! A28   A(9,10,11)            114.9118         calculate D2E/DX2 analytically  !
 ! A29   A(9,10,19)            122.1463         calculate D2E/DX2 analytically  !
 ! A30   A(11,10,19)           122.9413         calculate D2E/DX2 analytically  !
 ! A31   A(10,11,12)           122.931          calculate D2E/DX2 analytically  !
 ! A32   A(10,11,42)           120.3643         calculate D2E/DX2 analytically  !
 ! A33   A(12,11,42)           116.6157         calculate D2E/DX2 analytically  !
 ! A34   A(7,12,11)            120.5609         calculate D2E/DX2 analytically  !
 ! A35   A(7,12,18)            120.352          calculate D2E/DX2 analytically  !
 ! A36   A(11,12,18)           119.0306         calculate D2E/DX2 analytically  !
 ! A37   A(10,19,20)           118.223          calculate D2E/DX2 analytically  !
 ! A38   A(10,19,28)           119.6066         calculate D2E/DX2 analytically  !
 ! A39   A(20,19,28)           122.0725         calculate D2E/DX2 analytically  !
 ! A40   A(19,20,21)           125.1961         calculate D2E/DX2 analytically  !
 ! A41   A(19,20,22)           118.3715         calculate D2E/DX2 analytically  !
 ! A42   A(21,20,22)           116.4312         calculate D2E/DX2 analytically  !
 ! A43   A(20,21,23)           121.5107         calculate D2E/DX2 analytically  !
 ! A44   A(20,21,37)           121.7202         calculate D2E/DX2 analytically  !
 ! A45   A(23,21,37)           116.6753         calculate D2E/DX2 analytically  !
 ! A46   A(20,22,24)           122.5227         calculate D2E/DX2 analytically  !
 ! A47   A(20,22,25)           118.6558         calculate D2E/DX2 analytically  !
 ! A48   A(24,22,25)           118.8007         calculate D2E/DX2 analytically  !
 ! A49   A(21,23,26)           120.5453         calculate D2E/DX2 analytically  !
 ! A50   A(21,23,27)           119.9045         calculate D2E/DX2 analytically  !
 ! A51   A(26,23,27)           119.5403         calculate D2E/DX2 analytically  !
 ! A52   A(22,24,26)           119.5925         calculate D2E/DX2 analytically  !
 ! A53   A(22,24,38)           119.0222         calculate D2E/DX2 analytically  !
 ! A54   A(26,24,38)           121.3831         calculate D2E/DX2 analytically  !
 ! A55   A(23,26,24)           119.3819         calculate D2E/DX2 analytically  !
 ! A56   A(23,26,36)           118.8631         calculate D2E/DX2 analytically  !
 ! A57   A(24,26,36)           121.7523         calculate D2E/DX2 analytically  !
 ! A58   A(19,28,29)           122.1399         calculate D2E/DX2 analytically  !
 ! A59   A(19,28,30)           122.5897         calculate D2E/DX2 analytically  !
 ! A60   A(29,28,30)           115.2639         calculate D2E/DX2 analytically  !
 ! A61   A(28,29,31)           123.0819         calculate D2E/DX2 analytically  !
 ! A62   A(28,29,40)           120.5194         calculate D2E/DX2 analytically  !
 ! A63   A(31,29,40)           116.3148         calculate D2E/DX2 analytically  !
 ! A64   A(28,30,32)           123.0169         calculate D2E/DX2 analytically  !
 ! A65   A(28,30,41)           120.6862         calculate D2E/DX2 analytically  !
 ! A66   A(32,30,41)           116.2299         calculate D2E/DX2 analytically  !
 ! A67   A(29,31,33)           118.7097         calculate D2E/DX2 analytically  !
 ! A68   A(29,31,34)           120.3271         calculate D2E/DX2 analytically  !
 ! A69   A(33,31,34)           120.9534         calculate D2E/DX2 analytically  !
 ! A70   A(30,32,33)           118.7734         calculate D2E/DX2 analytically  !
 ! A71   A(30,32,35)           120.3171         calculate D2E/DX2 analytically  !
 ! A72   A(33,32,35)           120.9006         calculate D2E/DX2 analytically  !
 ! A73   A(31,33,32)           121.1535         calculate D2E/DX2 analytically  !
 ! A74   A(31,33,39)           119.442          calculate D2E/DX2 analytically  !
 ! A75   A(32,33,39)           119.4045         calculate D2E/DX2 analytically  !
 ! A76   A(46,44,47)           117.8881         calculate D2E/DX2 analytically  !
 ! A77   A(46,44,64)           122.6063         calculate D2E/DX2 analytically  !
 ! A78   A(47,44,64)           119.4959         calculate D2E/DX2 analytically  !
 ! A79   A(48,45,49)           117.8865         calculate D2E/DX2 analytically  !
 ! A80   A(48,45,64)           119.4965         calculate D2E/DX2 analytically  !
 ! A81   A(49,45,64)           122.6073         calculate D2E/DX2 analytically  !
 ! A82   A(44,46,50)           121.1769         calculate D2E/DX2 analytically  !
 ! A83   A(44,46,51)           118.8044         calculate D2E/DX2 analytically  !
 ! A84   A(50,46,51)           120.0177         calculate D2E/DX2 analytically  !
 ! A85   A(44,47,52)           119.086          calculate D2E/DX2 analytically  !
 ! A86   A(44,47,65)           119.4573         calculate D2E/DX2 analytically  !
 ! A87   A(52,47,65)           121.4554         calculate D2E/DX2 analytically  !
 ! A88   A(45,48,53)           119.0866         calculate D2E/DX2 analytically  !
 ! A89   A(45,48,65)           119.4569         calculate D2E/DX2 analytically  !
 ! A90   A(53,48,65)           121.4553         calculate D2E/DX2 analytically  !
 ! A91   A(45,49,54)           118.8045         calculate D2E/DX2 analytically  !
 ! A92   A(45,49,55)           121.1784         calculate D2E/DX2 analytically  !
 ! A93   A(54,49,55)           120.0161         calculate D2E/DX2 analytically  !
 ! A94   A(46,50,56)           120.7425         calculate D2E/DX2 analytically  !
 ! A95   A(46,50,57)           119.8191         calculate D2E/DX2 analytically  !
 ! A96   A(56,50,57)           119.4376         calculate D2E/DX2 analytically  !
 ! A97   A(47,52,56)           121.0675         calculate D2E/DX2 analytically  !
 ! A98   A(47,52,58)           118.2108         calculate D2E/DX2 analytically  !
 ! A99   A(56,52,58)           120.7214         calculate D2E/DX2 analytically  !
 ! A100  A(48,53,59)           121.0675         calculate D2E/DX2 analytically  !
 ! A101  A(48,53,60)           118.211          calculate D2E/DX2 analytically  !
 ! A102  A(59,53,60)           120.7212         calculate D2E/DX2 analytically  !
 ! A103  A(49,55,59)           120.7421         calculate D2E/DX2 analytically  !
 ! A104  A(49,55,61)           119.8198         calculate D2E/DX2 analytically  !
 ! A105  A(59,55,61)           119.4373         calculate D2E/DX2 analytically  !
 ! A106  A(50,56,52)           120.0244         calculate D2E/DX2 analytically  !
 ! A107  A(50,56,62)           119.6417         calculate D2E/DX2 analytically  !
 ! A108  A(52,56,62)           120.3323         calculate D2E/DX2 analytically  !
 ! A109  A(53,59,55)           120.0242         calculate D2E/DX2 analytically  !
 ! A110  A(53,59,63)           120.3329         calculate D2E/DX2 analytically  !
 ! A111  A(55,59,63)           119.6414         calculate D2E/DX2 analytically  !
 ! A112  A(4,64,44)            119.7734         calculate D2E/DX2 analytically  !
 ! A113  A(4,64,45)            119.7673         calculate D2E/DX2 analytically  !
 ! A114  A(44,64,45)           120.4593         calculate D2E/DX2 analytically  !
 ! A115  A(47,65,48)           121.6293         calculate D2E/DX2 analytically  !
 ! A116  A(47,65,66)           119.1856         calculate D2E/DX2 analytically  !
 ! A117  A(48,65,66)           119.1851         calculate D2E/DX2 analytically  !
 ! D1    D(6,1,2,3)              0.0327         calculate D2E/DX2 analytically  !
 ! D2    D(6,1,2,13)           178.4586         calculate D2E/DX2 analytically  !
 ! D3    D(7,1,2,3)           -179.9802         calculate D2E/DX2 analytically  !
 ! D4    D(7,1,2,13)            -1.5543         calculate D2E/DX2 analytically  !
 ! D5    D(2,1,6,5)             -0.0086         calculate D2E/DX2 analytically  !
 ! D6    D(2,1,6,16)           178.3914         calculate D2E/DX2 analytically  !
 ! D7    D(7,1,6,5)           -179.9957         calculate D2E/DX2 analytically  !
 ! D8    D(7,1,6,16)            -1.5957         calculate D2E/DX2 analytically  !
 ! D9    D(2,1,7,8)            -35.0223         calculate D2E/DX2 analytically  !
 ! D10   D(2,1,7,12)           144.9883         calculate D2E/DX2 analytically  !
 ! D11   D(6,1,7,8)            144.9644         calculate D2E/DX2 analytically  !
 ! D12   D(6,1,7,12)           -35.0249         calculate D2E/DX2 analytically  !
 ! D13   D(1,2,3,4)             -0.0308         calculate D2E/DX2 analytically  !
 ! D14   D(1,2,3,14)           179.5736         calculate D2E/DX2 analytically  !
 ! D15   D(13,2,3,4)          -178.4589         calculate D2E/DX2 analytically  !
 ! D16   D(13,2,3,14)            1.1455         calculate D2E/DX2 analytically  !
 ! D17   D(2,3,4,5)              0.0041         calculate D2E/DX2 analytically  !
 ! D18   D(2,3,4,64)          -179.9946         calculate D2E/DX2 analytically  !
 ! D19   D(14,3,4,5)          -179.6035         calculate D2E/DX2 analytically  !
 ! D20   D(14,3,4,64)            0.3977         calculate D2E/DX2 analytically  !
 ! D21   D(3,4,5,6)              0.0199         calculate D2E/DX2 analytically  !
 ! D22   D(3,4,5,15)          -179.5746         calculate D2E/DX2 analytically  !
 ! D23   D(64,4,5,6)          -179.9813         calculate D2E/DX2 analytically  !
 ! D24   D(64,4,5,15)            0.4242         calculate D2E/DX2 analytically  !
 ! D25   D(3,4,64,44)          109.7305         calculate D2E/DX2 analytically  !
 ! D26   D(3,4,64,45)          -70.2622         calculate D2E/DX2 analytically  !
 ! D27   D(5,4,64,44)          -70.2682         calculate D2E/DX2 analytically  !
 ! D28   D(5,4,64,45)          109.7391         calculate D2E/DX2 analytically  !
 ! D29   D(4,5,6,1)             -0.0177         calculate D2E/DX2 analytically  !
 ! D30   D(4,5,6,16)          -178.4195         calculate D2E/DX2 analytically  !
 ! D31   D(15,5,6,1)           179.5734         calculate D2E/DX2 analytically  !
 ! D32   D(15,5,6,16)            1.1716         calculate D2E/DX2 analytically  !
 ! D33   D(1,7,8,9)           -179.9535         calculate D2E/DX2 analytically  !
 ! D34   D(1,7,8,17)            -2.914          calculate D2E/DX2 analytically  !
 ! D35   D(12,7,8,9)             0.0362         calculate D2E/DX2 analytically  !
 ! D36   D(12,7,8,17)          177.0756         calculate D2E/DX2 analytically  !
 ! D37   D(1,7,12,11)          179.9328         calculate D2E/DX2 analytically  !
 ! D38   D(1,7,12,18)           -2.8258         calculate D2E/DX2 analytically  !
 ! D39   D(8,7,12,11)           -0.0569         calculate D2E/DX2 analytically  !
 ! D40   D(8,7,12,18)          177.1846         calculate D2E/DX2 analytically  !
 ! D41   D(7,8,9,10)             0.0644         calculate D2E/DX2 analytically  !
 ! D42   D(7,8,9,43)           175.7269         calculate D2E/DX2 analytically  !
 ! D43   D(17,8,9,10)         -177.012          calculate D2E/DX2 analytically  !
 ! D44   D(17,8,9,43)           -1.3495         calculate D2E/DX2 analytically  !
 ! D45   D(8,9,10,11)           -0.1351         calculate D2E/DX2 analytically  !
 ! D46   D(8,9,10,19)          179.5795         calculate D2E/DX2 analytically  !
 ! D47   D(43,9,10,11)        -175.651          calculate D2E/DX2 analytically  !
 ! D48   D(43,9,10,19)           4.0635         calculate D2E/DX2 analytically  !
 ! D49   D(9,10,11,12)           0.1137         calculate D2E/DX2 analytically  !
 ! D50   D(9,10,11,42)        -176.3385         calculate D2E/DX2 analytically  !
 ! D51   D(19,10,11,12)       -179.5983         calculate D2E/DX2 analytically  !
 ! D52   D(19,10,11,42)          3.9495         calculate D2E/DX2 analytically  !
 ! D53   D(9,10,19,20)          54.1174         calculate D2E/DX2 analytically  !
 ! D54   D(9,10,19,28)        -129.4061         calculate D2E/DX2 analytically  !
 ! D55   D(11,10,19,20)       -126.1911         calculate D2E/DX2 analytically  !
 ! D56   D(11,10,19,28)         50.2854         calculate D2E/DX2 analytically  !
 ! D57   D(10,11,12,7)          -0.0216         calculate D2E/DX2 analytically  !
 ! D58   D(10,11,12,18)       -177.2991         calculate D2E/DX2 analytically  !
 ! D59   D(42,11,12,7)         176.5546         calculate D2E/DX2 analytically  !
 ! D60   D(42,11,12,18)         -0.723          calculate D2E/DX2 analytically  !
 ! D61   D(10,19,20,21)       -146.7135         calculate D2E/DX2 analytically  !
 ! D62   D(10,19,20,22)         32.8849         calculate D2E/DX2 analytically  !
 ! D63   D(28,19,20,21)         36.9018         calculate D2E/DX2 analytically  !
 ! D64   D(28,19,20,22)       -143.4997         calculate D2E/DX2 analytically  !
 ! D65   D(10,19,28,29)         51.0683         calculate D2E/DX2 analytically  !
 ! D66   D(10,19,28,30)       -127.955          calculate D2E/DX2 analytically  !
 ! D67   D(20,19,28,29)       -132.5956         calculate D2E/DX2 analytically  !
 ! D68   D(20,19,28,30)         48.3811         calculate D2E/DX2 analytically  !
 ! D69   D(19,20,21,23)       -179.1012         calculate D2E/DX2 analytically  !
 ! D70   D(19,20,21,37)          4.5357         calculate D2E/DX2 analytically  !
 ! D71   D(22,20,21,23)          1.2934         calculate D2E/DX2 analytically  !
 ! D72   D(22,20,21,37)       -175.0697         calculate D2E/DX2 analytically  !
 ! D73   D(19,20,22,24)        179.1891         calculate D2E/DX2 analytically  !
 ! D74   D(19,20,22,25)          0.8727         calculate D2E/DX2 analytically  !
 ! D75   D(21,20,22,24)         -1.1774         calculate D2E/DX2 analytically  !
 ! D76   D(21,20,22,25)       -179.4937         calculate D2E/DX2 analytically  !
 ! D77   D(20,21,23,26)         -0.4284         calculate D2E/DX2 analytically  !
 ! D78   D(20,21,23,27)       -179.2794         calculate D2E/DX2 analytically  !
 ! D79   D(37,21,23,26)        176.1096         calculate D2E/DX2 analytically  !
 ! D80   D(37,21,23,27)         -2.7414         calculate D2E/DX2 analytically  !
 ! D81   D(20,22,24,26)          0.1843         calculate D2E/DX2 analytically  !
 ! D82   D(20,22,24,38)       -179.2865         calculate D2E/DX2 analytically  !
 ! D83   D(25,22,24,26)        178.4984         calculate D2E/DX2 analytically  !
 ! D84   D(25,22,24,38)         -0.9724         calculate D2E/DX2 analytically  !
 ! D85   D(21,23,26,24)         -0.6224         calculate D2E/DX2 analytically  !
 ! D86   D(21,23,26,36)        179.9556         calculate D2E/DX2 analytically  !
 ! D87   D(27,23,26,24)        178.2328         calculate D2E/DX2 analytically  !
 ! D88   D(27,23,26,36)         -1.1892         calculate D2E/DX2 analytically  !
 ! D89   D(22,24,26,23)          0.7421         calculate D2E/DX2 analytically  !
 ! D90   D(22,24,26,36)       -179.8532         calculate D2E/DX2 analytically  !
 ! D91   D(38,24,26,23)       -179.7999         calculate D2E/DX2 analytically  !
 ! D92   D(38,24,26,36)         -0.3952         calculate D2E/DX2 analytically  !
 ! D93   D(19,28,29,31)       -179.2368         calculate D2E/DX2 analytically  !
 ! D94   D(19,28,29,40)          4.2177         calculate D2E/DX2 analytically  !
 ! D95   D(30,28,29,31)         -0.1468         calculate D2E/DX2 analytically  !
 ! D96   D(30,28,29,40)       -176.6923         calculate D2E/DX2 analytically  !
 ! D97   D(19,28,30,32)        179.3985         calculate D2E/DX2 analytically  !
 ! D98   D(19,28,30,41)          2.4892         calculate D2E/DX2 analytically  !
 ! D99   D(29,28,30,32)          0.313          calculate D2E/DX2 analytically  !
 ! D100  D(29,28,30,41)       -176.5964         calculate D2E/DX2 analytically  !
 ! D101  D(28,29,31,33)         -0.0747         calculate D2E/DX2 analytically  !
 ! D102  D(28,29,31,34)       -178.9486         calculate D2E/DX2 analytically  !
 ! D103  D(40,29,31,33)        176.6055         calculate D2E/DX2 analytically  !
 ! D104  D(40,29,31,34)         -2.2684         calculate D2E/DX2 analytically  !
 ! D105  D(28,30,32,33)         -0.2512         calculate D2E/DX2 analytically  !
 ! D106  D(28,30,32,35)       -179.1743         calculate D2E/DX2 analytically  !
 ! D107  D(41,30,32,33)        176.7859         calculate D2E/DX2 analytically  !
 ! D108  D(41,30,32,35)         -2.1372         calculate D2E/DX2 analytically  !
 ! D109  D(29,31,33,32)          0.1492         calculate D2E/DX2 analytically  !
 ! D110  D(29,31,33,39)       -179.9049         calculate D2E/DX2 analytically  !
 ! D111  D(34,31,33,32)        179.0159         calculate D2E/DX2 analytically  !
 ! D112  D(34,31,33,39)         -1.0382         calculate D2E/DX2 analytically  !
 ! D113  D(30,32,33,31)          0.0076         calculate D2E/DX2 analytically  !
 ! D114  D(30,32,33,39)       -179.9383         calculate D2E/DX2 analytically  !
 ! D115  D(35,32,33,31)        178.9242         calculate D2E/DX2 analytically  !
 ! D116  D(35,32,33,39)         -1.0217         calculate D2E/DX2 analytically  !
 ! D117  D(47,44,46,50)         -1.1983         calculate D2E/DX2 analytically  !
 ! D118  D(47,44,46,51)        178.4299         calculate D2E/DX2 analytically  !
 ! D119  D(64,44,46,50)        179.9393         calculate D2E/DX2 analytically  !
 ! D120  D(64,44,46,51)         -0.4325         calculate D2E/DX2 analytically  !
 ! D121  D(46,44,47,52)          1.3363         calculate D2E/DX2 analytically  !
 ! D122  D(46,44,47,65)       -178.2535         calculate D2E/DX2 analytically  !
 ! D123  D(64,44,47,52)       -179.7648         calculate D2E/DX2 analytically  !
 ! D124  D(64,44,47,65)          0.6455         calculate D2E/DX2 analytically  !
 ! D125  D(46,44,64,4)          -1.4696         calculate D2E/DX2 analytically  !
 ! D126  D(46,44,64,45)        178.523          calculate D2E/DX2 analytically  !
 ! D127  D(47,44,64,4)         179.6856         calculate D2E/DX2 analytically  !
 ! D128  D(47,44,64,45)         -0.3217         calculate D2E/DX2 analytically  !
 ! D129  D(49,45,48,53)          1.3357         calculate D2E/DX2 analytically  !
 ! D130  D(49,45,48,65)       -178.2586         calculate D2E/DX2 analytically  !
 ! D131  D(64,45,48,53)       -179.7615         calculate D2E/DX2 analytically  !
 ! D132  D(64,45,48,65)          0.6442         calculate D2E/DX2 analytically  !
 ! D133  D(48,45,49,54)        178.4385         calculate D2E/DX2 analytically  !
 ! D134  D(48,45,49,55)         -1.1975         calculate D2E/DX2 analytically  !
 ! D135  D(64,45,49,54)         -0.4278         calculate D2E/DX2 analytically  !
 ! D136  D(64,45,49,55)        179.9362         calculate D2E/DX2 analytically  !
 ! D137  D(48,45,64,4)         179.6751         calculate D2E/DX2 analytically  !
 ! D138  D(48,45,64,44)         -0.3176         calculate D2E/DX2 analytically  !
 ! D139  D(49,45,64,4)          -1.4762         calculate D2E/DX2 analytically  !
 ! D140  D(49,45,64,44)        178.5312         calculate D2E/DX2 analytically  !
 ! D141  D(44,46,50,56)          0.2557         calculate D2E/DX2 analytically  !
 ! D142  D(44,46,50,57)        179.9128         calculate D2E/DX2 analytically  !
 ! D143  D(51,46,50,56)       -179.368          calculate D2E/DX2 analytically  !
 ! D144  D(51,46,50,57)          0.2891         calculate D2E/DX2 analytically  !
 ! D145  D(44,47,52,56)         -0.5612         calculate D2E/DX2 analytically  !
 ! D146  D(44,47,52,58)        179.6352         calculate D2E/DX2 analytically  !
 ! D147  D(65,47,52,56)        179.0201         calculate D2E/DX2 analytically  !
 ! D148  D(65,47,52,58)         -0.7836         calculate D2E/DX2 analytically  !
 ! D149  D(44,47,65,48)         -0.3205         calculate D2E/DX2 analytically  !
 ! D150  D(44,47,65,66)        179.6765         calculate D2E/DX2 analytically  !
 ! D151  D(52,47,65,48)       -179.9002         calculate D2E/DX2 analytically  !
 ! D152  D(52,47,65,66)          0.0968         calculate D2E/DX2 analytically  !
 ! D153  D(45,48,53,59)         -0.5616         calculate D2E/DX2 analytically  !
 ! D154  D(45,48,53,60)        179.6302         calculate D2E/DX2 analytically  !
 ! D155  D(65,48,53,59)        179.0243         calculate D2E/DX2 analytically  !
 ! D156  D(65,48,53,60)         -0.7839         calculate D2E/DX2 analytically  !
 ! D157  D(45,48,65,47)         -0.3222         calculate D2E/DX2 analytically  !
 ! D158  D(45,48,65,66)        179.6808         calculate D2E/DX2 analytically  !
 ! D159  D(53,48,65,47)       -179.9066         calculate D2E/DX2 analytically  !
 ! D160  D(53,48,65,66)          0.0964         calculate D2E/DX2 analytically  !
 ! D161  D(45,49,55,59)          0.2555         calculate D2E/DX2 analytically  !
 ! D162  D(45,49,55,61)        179.9209         calculate D2E/DX2 analytically  !
 ! D163  D(54,49,55,59)       -179.3761         calculate D2E/DX2 analytically  !
 ! D164  D(54,49,55,61)          0.2893         calculate D2E/DX2 analytically  !
 ! D165  D(46,50,56,52)          0.5729         calculate D2E/DX2 analytically  !
 ! D166  D(46,50,56,62)       -179.8746         calculate D2E/DX2 analytically  !
 ! D167  D(57,50,56,52)       -179.0854         calculate D2E/DX2 analytically  !
 ! D168  D(57,50,56,62)          0.4671         calculate D2E/DX2 analytically  !
 ! D169  D(47,52,56,50)         -0.4049         calculate D2E/DX2 analytically  !
 ! D170  D(47,52,56,62)       -179.9543         calculate D2E/DX2 analytically  !
 ! D171  D(58,52,56,50)        179.3938         calculate D2E/DX2 analytically  !
 ! D172  D(58,52,56,62)         -0.1555         calculate D2E/DX2 analytically  !
 ! D173  D(48,53,59,55)         -0.4038         calculate D2E/DX2 analytically  !
 ! D174  D(48,53,59,63)       -179.9597         calculate D2E/DX2 analytically  !
 ! D175  D(60,53,59,55)        179.3996         calculate D2E/DX2 analytically  !
 ! D176  D(60,53,59,63)         -0.1563         calculate D2E/DX2 analytically  !
 ! D177  D(49,55,59,53)          0.5721         calculate D2E/DX2 analytically  !
 ! D178  D(49,55,59,63)       -179.8689         calculate D2E/DX2 analytically  !
 ! D179  D(61,55,59,53)       -179.0946         calculate D2E/DX2 analytically  !
 ! D180  D(61,55,59,63)          0.4644         calculate D2E/DX2 analytically  !
 --------------------------------------------------------------------------------
 Trust Radius=3.00D-01 FncErr=1.00D-07 GrdErr=1.00D-06 EigMax=2.50D+02 EigMin=1.00D-04
 Number of steps in this run=    379 maximum allowed number of steps=    396.
 Step   0 in ReCalcFC= 5 IGetFC= 4 compute analytic Hessian.
 GradGradGradGradGradGradGradGradGradGradGradGradGradGradGradGradGradGrad

 Leave Link  103 at Fri Mar 14 09:15:03 2025, MaxMem=  7516192768 cpu:               0.7 elap:               0.1
 (Enter /share/apps/softwares/gaussian/16/g16/l202.exe)
 Stoichiometry    C39H27(2)
 Framework group  C1[X(C39H27)]
 Deg. of freedom   192
 Full point group                 C1      NOp   1
 Largest Abelian subgroup         C1      NOp   1
 Largest concise Abelian subgroup C1      NOp   1
                         Standard orientation:                         
 ---------------------------------------------------------------------
 Center     Atomic      Atomic             Coordinates (Angstroms)
 Number     Number       Type             X           Y           Z
 ---------------------------------------------------------------------
      1          6           0       -0.567125   -0.015453   -0.016462
      2          6           0       -1.290753    0.867181   -0.833453
      3          6           0       -2.681550    0.868665   -0.824376
      4          6           0       -3.397167   -0.010956   -0.000250
      5          6           0       -2.674900   -0.893034    0.815470
      6          6           0       -1.284118   -0.896074    0.808526
      7          6           0        0.910845   -0.017701   -0.024886
      8          6           0        1.624721    0.231525   -1.205575
      9          6           0        3.011010    0.226858   -1.206105
     10          6           0        3.779849   -0.025171   -0.042665
     11          6           0        3.025775   -0.270395    1.127956
     12          6           0        1.637601   -0.268924    1.145608
     13          1           0       -0.759505    1.575013   -1.461590
     14          1           0       -3.226989    1.561837   -1.456604
     15          1           0       -3.215301   -1.584672    1.453690
     16          1           0       -0.747722   -1.606043    1.429822
     17          1           0        1.099298    0.383163   -2.139988
     18          1           0        1.123965   -0.420776    2.086514
     19          6           0        5.248922   -0.035127   -0.063411
     20          6           0        5.935802    1.128460   -0.593470
     21          6           0        7.163684    1.100758   -1.297254
     22          6           0        5.344980    2.397626   -0.410164
     23          6           0        7.763614    2.265738   -1.755880
     24          6           0        5.933509    3.565890   -0.865783
     25          1           0        4.409391    2.461474    0.130542
     26          6           0        7.161527    3.505306   -1.540568
     27          1           0        8.696956    2.213387   -2.301458
     28          6           0        5.973987   -1.170638    0.515732
     29          6           0        5.677464   -2.508755    0.168075
     30          6           0        7.003343   -1.009289    1.474261
     31          6           0        6.341639   -3.600300    0.716268
     32          6           0        7.687434   -2.078811    2.037448
     33          6           0        7.346515   -3.370946    1.649543
     34          1           0        6.089956   -4.605421    0.405270
     35          1           0        8.458093   -1.905769    2.776678
     36          1           0        7.952014    4.936911   -2.132988
     37          1           0        7.952280   -0.405982   -1.713643
     38          1           0        5.132223    5.086983   -0.572920
     39          1           0        8.196146   -4.729899    2.349439
     40          1           0        4.487893   -2.864068   -1.067548
     41          1           0        7.425414    0.581546    2.073505
     42          1           0        3.831804   -0.504386    2.670152
     43          1           0        3.800256    0.435688   -2.758259
     44          6           0       -5.593160   -1.096752   -0.550395
     45          6           0       -5.582736    1.082567    0.575200
     46          6           0       -4.935522   -2.210069   -1.163553
     47          6           0       -7.037169   -1.091215   -0.532689
     48          6           0       -7.026861    1.082281    0.574114
     49          6           0       -4.914074    2.193549    1.180620
     50          6           0       -5.649916   -3.250613   -1.695206
     51          1           0       -3.853073   -2.217139   -1.208039
     52          6           0       -7.742880   -2.198561   -1.095570
     53          6           0       -7.722032    2.192229    1.144952
     54          1           0       -3.831171    2.196780    1.212533
     55          6           0       -5.618513    3.236718    1.720343
     56          6           0       -7.072960   -3.250847   -1.657163
     57          1           0       -5.128353   -4.083564   -2.156499
     58          1           0       -8.828821   -2.182440   -1.069242
     59          6           0       -7.041886    3.242111    1.698686
     60          1           0       -8.808255    2.180089    1.131047
     61          1           0       -5.088661    4.067871    2.175383
     62          1           0       -7.621237   -4.085793   -2.082099
     63          1           0       -7.582194    4.079114    2.129728
     64          6           0       -4.886422   -0.008379    0.008385
     65          6           0       -7.713176   -0.003231    0.024640
     66          1           0       -8.800204   -0.001237    0.030864
 ---------------------------------------------------------------------
 Rotational constants (GHZ):           0.1958906           0.0314739           0.0290547
 Leave Link  202 at Fri Mar 14 09:15:04 2025, MaxMem=  7516192768 cpu:               1.3 elap:               0.2
 (Enter /share/apps/softwares/gaussian/16/g16/l301.exe)
 Standard basis: 6-31G(d,p) (6D, 7F)
 Ernie: Thresh=  0.10000D-02 Tol=  0.10000D-05 Strict=F.
 There are   720 symmetry adapted cartesian basis functions of A   symmetry.
 There are   720 symmetry adapted basis functions of A   symmetry.
   720 basis functions,  1281 primitive gaussians,   720 cartesian basis functions
   131 alpha electrons      130 beta electrons
       nuclear repulsion energy      3529.0410911089 Hartrees.
 IExCor=  402 DFT=T Ex+Corr=B3LYP ExCW=0 ScaHFX=  0.200000
 ScaDFX=  0.800000  0.720000  1.000000  0.810000 ScalE2=  1.000000  1.000000
 IRadAn=      5 IRanWt=     -1 IRanGd=            0 ICorTp=0 IEmpDi=141
 NAtoms=   66 NActive=   66 NUniq=   66 SFac= 1.00D+00 NAtFMM=   60 NAOKFM=T Big=T
 Integral buffers will be    131072 words long.
 Raffenetti 2 integral format.
 Two-electron integral symmetry is turned on.
 R6Disp:  Grimme-D3(BJ) Dispersion energy=       -0.1788205308 Hartrees.
 Nuclear repulsion after empirical dispersion term =     3528.8622705780 Hartrees.
 Leave Link  301 at Fri Mar 14 09:15:05 2025, MaxMem=  7516192768 cpu:               2.7 elap:               0.2
 (Enter /share/apps/softwares/gaussian/16/g16/l302.exe)
 NPDir=0 NMtPBC=     1 NCelOv=     1 NCel=       1 NClECP=     1 NCelD=      1
         NCelK=      1 NCelE2=     1 NClLst=     1 CellRange=     0.0.
 One-electron integrals computed using PRISM.
 One-electron integral symmetry used in STVInt
 NBasis=   720 RedAO= T EigKep=  1.81D-04  NBF=   720
 NBsUse=   720 1.00D-06 EigRej= -1.00D+00 NBFU=   720
 Precomputing XC quadrature grid using
 IXCGrd= 4 IRadAn=           5 IRanWt=          -1 IRanGd=           0 AccXCQ= 0.00D+00.
 Generated NRdTot=       0 NPtTot=           0 NUsed=           0 NTot=          32
 NSgBfM=   667   661   662   667   667 MxSgAt=    66 MxSgA2=    66.
 Leave Link  302 at Fri Mar 14 09:15:07 2025, MaxMem=  7516192768 cpu:              26.8 elap:               1.3
 (Enter /share/apps/softwares/gaussian/16/g16/l303.exe)
 DipDrv:  MaxL=1.
 Leave Link  303 at Fri Mar 14 09:15:08 2025, MaxMem=  7516192768 cpu:               2.4 elap:               0.2
 (Enter /share/apps/softwares/gaussian/16/g16/l401.exe)
 ExpMin= 1.61D-01 ExpMax= 3.05D+03 ExpMxC= 4.57D+02 IAcc=3 IRadAn=         5 AccDes= 0.00D+00
 Harris functional with IExCor=  402 and IRadAn=       5 diagonalized for initial guess.
 HarFok:  IExCor=  402 AccDes= 0.00D+00 IRadAn=         5 IDoV= 1 UseB2=F ITyADJ=14
 ICtDFT=  3500011 ScaDFX=  1.000000  1.000000  1.000000  1.000000
 FoFCou: FMM=F IPFlag=           0 FMFlag=      100000 FMFlg1=        2001
         NFxFlg=           0 DoJE=T BraDBF=F KetDBF=T FulRan=T
         wScrn=  0.000000 ICntrl=       500 IOpCl=  0 I1Cent=   200000004 NGrid=           0
         NMat0=    1 NMatS0=      1 NMatT0=    0 NMatD0=    1 NMtDS0=    0 NMtDT0=    0
 Petite list used in FoFCou.
 Harris En= -1501.82293788836    
 JPrj=0 DoOrth=F DoCkMO=F.
 Initial guess <Sx>= 0.0000 <Sy>= 0.0000 <Sz>= 0.5000 <S**2>= 0.7500 S= 0.5000
 Leave Link  401 at Fri Mar 14 09:15:12 2025, MaxMem=  7516192768 cpu:              72.9 elap:               3.3
 (Enter /share/apps/softwares/gaussian/16/g16/l502.exe)
 Integral symmetry usage will be decided dynamically.
 UHF open shell SCF:
 Using DIIS extrapolation, IDIIS=  1040.
 NGot=  7516192768 LenX=  7515129813 LenY=  7514610693
 Requested convergence on RMS density matrix=1.00D-08 within 128 cycles.
 Requested convergence on MAX density matrix=1.00D-06.
 Requested convergence on             energy=1.00D-06.
 No special actions if energy rises.
 Fock matrices will be formed incrementally for  20 cycles.
 Integral accuracy reduced to 1.0D-05 until final iterations.

 Cycle   1  Pass 0  IDiag  1:
 FoFJK:  IHMeth= 1 ICntrl=       0 DoSepK=F KAlg= 0 I1Cent=           0 FoldK=F
 IRaf= 670000000 NMat=       1 IRICut=       1 DoRegI=T DoRafI=F ISym2E= 0 IDoP0=0 IntGTp=1.
 FoFCou: FMM=T IPFlag=           0 FMFlag=      100000 FMFlg1=        2001
         NFxFlg=           0 DoJE=F BraDBF=F KetDBF=F FulRan=T
         wScrn=  0.000000 ICntrl=         0 IOpCl=  1 I1Cent=           0 NGrid=           0
         NMat0=    1 NMatS0=      1 NMatT0=    0 NMatD0=    1 NMtDS0=    0 NMtDT0=    0
 Symmetry not used in FoFCou.
 FMM levels:  10  Number of levels for PrismC:   9
 E= -1500.95355470549    
 DIIS: error= 3.83D-02 at cycle   1 NSaved=   1.
 NSaved= 1 IEnMin= 1 EnMin= -1500.95355470549     IErMin= 1 ErrMin= 3.83D-02
 ErrMax= 3.83D-02  0.00D+00 EMaxC= 1.00D-01 BMatC= 2.97D+00 BMatP= 2.97D+00
 IDIUse=3 WtCom= 6.17D-01 WtEn= 3.83D-01
 Coeff-Com:  0.100D+01
 Coeff-En:   0.100D+01
 Coeff:      0.100D+01
 Gap=     0.081 Goal=   None    Shift=    0.000
 Gap=     0.118 Goal=   None    Shift=    0.000
 GapD=    0.081 DampG=0.500 DampE=0.500 DampFc=0.2500 IDamp=-1.
 Damping current iteration by 2.50D-01
 RMSDP=3.23D-03 MaxDP=2.38D-01              OVMax= 2.83D-01

 Cycle   2  Pass 0  IDiag  1:
 RMSU=  7.74D-04    CP:  9.81D-01
 E= -1501.27700686529     Delta-E=       -0.323452159799 Rises=F Damp=T
 DIIS: error= 2.17D-02 at cycle   2 NSaved=   2.
 NSaved= 2 IEnMin= 2 EnMin= -1501.27700686529     IErMin= 2 ErrMin= 2.17D-02
 ErrMax= 2.17D-02  0.00D+00 EMaxC= 1.00D-01 BMatC= 7.79D-01 BMatP= 2.97D+00
 IDIUse=3 WtCom= 7.83D-01 WtEn= 2.17D-01
 Coeff-Com: -0.799D+00 0.180D+01
 Coeff-En:   0.000D+00 0.100D+01
 Coeff:     -0.626D+00 0.163D+01
 Gap=     0.084 Goal=   None    Shift=    0.000
 Gap=     0.072 Goal=   None    Shift=    0.000
 RMSDP=1.33D-03 MaxDP=7.98D-02 DE=-3.23D-01 OVMax= 2.72D-01

 Cycle   3  Pass 0  IDiag  1:
 RMSU=  1.01D-03    CP:  9.44D-01  1.96D+00
 E= -1501.80053747544     Delta-E=       -0.523530610148 Rises=F Damp=F
 DIIS: error= 5.79D-03 at cycle   3 NSaved=   3.
 NSaved= 3 IEnMin= 3 EnMin= -1501.80053747544     IErMin= 3 ErrMin= 5.79D-03
 ErrMax= 5.79D-03  0.00D+00 EMaxC= 1.00D-01 BMatC= 1.48D-01 BMatP= 7.79D-01
 IDIUse=3 WtCom= 9.42D-01 WtEn= 5.79D-02
 Coeff-Com: -0.355D+00 0.778D+00 0.577D+00
 Coeff-En:   0.000D+00 0.000D+00 0.100D+01
 Coeff:     -0.334D+00 0.733D+00 0.602D+00
 Gap=     0.133 Goal=   None    Shift=    0.000
 Gap=     0.109 Goal=   None    Shift=    0.000
 RMSDP=4.71D-04 MaxDP=3.41D-02 DE=-5.24D-01 OVMax= 7.09D-02

 Cycle   4  Pass 0  IDiag  1:
 RMSU=  4.06D-04    CP:  9.45D-01  1.95D+00  7.64D-01
 E= -1501.83037847906     Delta-E=       -0.029841003618 Rises=F Damp=F
 DIIS: error= 3.98D-03 at cycle   4 NSaved=   4.
 NSaved= 4 IEnMin= 4 EnMin= -1501.83037847906     IErMin= 4 ErrMin= 3.98D-03
 ErrMax= 3.98D-03  0.00D+00 EMaxC= 1.00D-01 BMatC= 5.32D-02 BMatP= 1.48D-01
 IDIUse=3 WtCom= 9.60D-01 WtEn= 3.98D-02
 Coeff-Com: -0.752D-01 0.162D+00 0.372D+00 0.541D+00
 Coeff-En:   0.000D+00 0.000D+00 0.282D+00 0.718D+00
 Coeff:     -0.722D-01 0.156D+00 0.368D+00 0.548D+00
 Gap=     0.111 Goal=   None    Shift=    0.000
 Gap=     0.096 Goal=   None    Shift=    0.000
 RMSDP=2.31D-04 MaxDP=1.32D-02 DE=-2.98D-02 OVMax= 4.26D-02

 Cycle   5  Pass 0  IDiag  1:
 RMSU=  1.44D-04    CP:  9.46D-01  1.95D+00  8.10D-01  5.68D-01
 E= -1501.84410321037     Delta-E=       -0.013724731310 Rises=F Damp=F
 DIIS: error= 1.93D-03 at cycle   5 NSaved=   5.
 NSaved= 5 IEnMin= 5 EnMin= -1501.84410321037     IErMin= 5 ErrMin= 1.93D-03
 ErrMax= 1.93D-03  0.00D+00 EMaxC= 1.00D-01 BMatC= 7.89D-03 BMatP= 5.32D-02
 IDIUse=3 WtCom= 9.81D-01 WtEn= 1.93D-02
 Coeff-Com: -0.173D-01 0.357D-01 0.184D+00 0.351D+00 0.447D+00
 Coeff-En:   0.000D+00 0.000D+00 0.000D+00 0.815D-01 0.918D+00
 Coeff:     -0.170D-01 0.350D-01 0.180D+00 0.346D+00 0.456D+00
 Gap=     0.103 Goal=   None    Shift=    0.000
 Gap=     0.095 Goal=   None    Shift=    0.000
 RMSDP=9.12D-05 MaxDP=5.80D-03 DE=-1.37D-02 OVMax= 2.57D-02

 Cycle   6  Pass 0  IDiag  1:
 RMSU=  5.86D-05    CP:  9.45D-01  1.96D+00  8.16D-01  6.39D-01  5.62D-01
 E= -1501.84607247458     Delta-E=       -0.001969264208 Rises=F Damp=F
 DIIS: error= 8.54D-04 at cycle   6 NSaved=   6.
 NSaved= 6 IEnMin= 6 EnMin= -1501.84607247458     IErMin= 6 ErrMin= 8.54D-04
 ErrMax= 8.54D-04  0.00D+00 EMaxC= 1.00D-01 BMatC= 1.22D-03 BMatP= 7.89D-03
 IDIUse=3 WtCom= 9.91D-01 WtEn= 8.54D-03
 Coeff-Com: -0.266D-03-0.475D-03 0.626D-01 0.146D+00 0.305D+00 0.487D+00
 Coeff-En:   0.000D+00 0.000D+00 0.000D+00 0.000D+00 0.129D+00 0.871D+00
 Coeff:     -0.264D-03-0.471D-03 0.621D-01 0.145D+00 0.303D+00 0.491D+00
 Gap=     0.105 Goal=   None    Shift=    0.000
 Gap=     0.094 Goal=   None    Shift=    0.000
 RMSDP=3.61D-05 MaxDP=3.11D-03 DE=-1.97D-03 OVMax= 9.93D-03

 Cycle   7  Pass 0  IDiag  1:
 RMSU=  2.34D-05    CP:  9.45D-01  1.95D+00  8.22D-01  6.28D-01  6.74D-01
                    CP:  6.42D-01
 E= -1501.84641580548     Delta-E=       -0.000343330908 Rises=F Damp=F
 DIIS: error= 2.32D-04 at cycle   7 NSaved=   7.
 NSaved= 7 IEnMin= 7 EnMin= -1501.84641580548     IErMin= 7 ErrMin= 2.32D-04
 ErrMax= 2.32D-04  0.00D+00 EMaxC= 1.00D-01 BMatC= 1.52D-04 BMatP= 1.22D-03
 IDIUse=3 WtCom= 9.98D-01 WtEn= 2.32D-03
 Coeff-Com:  0.276D-02-0.618D-02 0.782D-02 0.308D-01 0.107D+00 0.293D+00
 Coeff-Com:  0.565D+00
 Coeff-En:   0.000D+00 0.000D+00 0.000D+00 0.000D+00 0.000D+00 0.221D-01
 Coeff-En:   0.978D+00
 Coeff:      0.275D-02-0.616D-02 0.780D-02 0.308D-01 0.107D+00 0.292D+00
 Coeff:      0.566D+00
 Gap=     0.105 Goal=   None    Shift=    0.000
 Gap=     0.096 Goal=   None    Shift=    0.000
 RMSDP=1.43D-05 MaxDP=1.23D-03 DE=-3.43D-04 OVMax= 2.85D-03

 Cycle   8  Pass 0  IDiag  1:
 RMSU=  1.13D-05    CP:  9.45D-01  1.96D+00  8.23D-01  6.39D-01  6.76D-01
                    CP:  7.47D-01  8.08D-01
 E= -1501.84647594882     Delta-E=       -0.000060143335 Rises=F Damp=F
 DIIS: error= 1.09D-04 at cycle   8 NSaved=   8.
 NSaved= 8 IEnMin= 8 EnMin= -1501.84647594882     IErMin= 8 ErrMin= 1.09D-04
 ErrMax= 1.09D-04  0.00D+00 EMaxC= 1.00D-01 BMatC= 3.70D-05 BMatP= 1.52D-04
 IDIUse=3 WtCom= 9.99D-01 WtEn= 1.09D-03
 Coeff-Com:  0.146D-02-0.301D-02-0.130D-01-0.232D-01-0.239D-01 0.234D-01
 Coeff-Com:  0.315D+00 0.723D+00
 Coeff-En:   0.000D+00 0.000D+00 0.000D+00 0.000D+00 0.000D+00 0.000D+00
 Coeff-En:   0.000D+00 0.100D+01
 Coeff:      0.146D-02-0.301D-02-0.130D-01-0.232D-01-0.239D-01 0.233D-01
 Coeff:      0.315D+00 0.723D+00
 Gap=     0.106 Goal=   None    Shift=    0.000
 Gap=     0.096 Goal=   None    Shift=    0.000
 RMSDP=9.91D-06 MaxDP=9.99D-04 DE=-6.01D-05 OVMax= 2.30D-03

 Initial convergence to 1.0D-05 achieved.  Increase integral accuracy.
 Cycle   9  Pass 1  IDiag  1:
 E= -1501.84652982987     Delta-E=       -0.000053881053 Rises=F Damp=F
 DIIS: error= 2.45D-04 at cycle   1 NSaved=   1.
 NSaved= 1 IEnMin= 1 EnMin= -1501.84652982987     IErMin= 1 ErrMin= 2.45D-04
 ErrMax= 2.45D-04  0.00D+00 EMaxC= 1.00D-01 BMatC= 6.46D-05 BMatP= 6.46D-05
 IDIUse=3 WtCom= 9.98D-01 WtEn= 2.45D-03
 Coeff-Com:  0.100D+01
 Coeff-En:   0.100D+01
 Coeff:      0.100D+01
 Gap=     0.106 Goal=   None    Shift=    0.000
 Gap=     0.096 Goal=   None    Shift=    0.000
 RMSDP=9.91D-06 MaxDP=9.99D-04 DE=-5.39D-05 OVMax= 2.65D-03

 Cycle  10  Pass 1  IDiag  1:
 RMSU=  9.13D-05    CP:  1.00D+00
 E= -1501.84652868646     Delta-E=        0.000001143415 Rises=F Damp=F
 DIIS: error= 1.96D-04 at cycle   2 NSaved=   2.
 NSaved= 2 IEnMin= 1 EnMin= -1501.84652982987     IErMin= 2 ErrMin= 1.96D-04
 ErrMax= 1.96D-04  0.00D+00 EMaxC= 1.00D-01 BMatC= 8.78D-05 BMatP= 6.46D-05
 IDIUse=3 WtCom= 4.16D-01 WtEn= 5.84D-01
 Coeff-Com:  0.553D+00 0.447D+00
 Coeff-En:   0.518D+00 0.482D+00
 Coeff:      0.533D+00 0.467D+00
 Gap=     0.106 Goal=   None    Shift=    0.000
 Gap=     0.096 Goal=   None    Shift=    0.000
 RMSDP=1.03D-05 MaxDP=1.16D-03 DE= 1.14D-06 OVMax= 1.98D-03

 Cycle  11  Pass 1  IDiag  1:
 RMSU=  1.03D-05    CP:  1.00D+00  9.94D-01
 E= -1501.84654792191     Delta-E=       -0.000019235449 Rises=F Damp=F
 DIIS: error= 1.22D-04 at cycle   3 NSaved=   3.
 NSaved= 3 IEnMin= 3 EnMin= -1501.84654792191     IErMin= 3 ErrMin= 1.22D-04
 ErrMax= 1.22D-04  0.00D+00 EMaxC= 1.00D-01 BMatC= 3.05D-05 BMatP= 6.46D-05
 IDIUse=3 WtCom= 9.99D-01 WtEn= 1.22D-03
 Coeff-Com:  0.735D-02 0.362D+00 0.631D+00
 Coeff-En:   0.000D+00 0.274D+00 0.726D+00
 Coeff:      0.735D-02 0.362D+00 0.631D+00
 Gap=     0.106 Goal=   None    Shift=    0.000
 Gap=     0.097 Goal=   None    Shift=    0.000
 RMSDP=5.27D-06 MaxDP=6.72D-04 DE=-1.92D-05 OVMax= 1.22D-03

 Cycle  12  Pass 1  IDiag  1:
 RMSU=  3.80D-06    CP:  1.00D+00  1.01D+00  6.62D-01
 E= -1501.84655948243     Delta-E=       -0.000011560522 Rises=F Damp=F
 DIIS: error= 3.57D-05 at cycle   4 NSaved=   4.
 NSaved= 4 IEnMin= 4 EnMin= -1501.84655948243     IErMin= 4 ErrMin= 3.57D-05
 ErrMax= 3.57D-05  0.00D+00 EMaxC= 1.00D-01 BMatC= 3.91D-06 BMatP= 3.05D-05
 IDIUse=1 WtCom= 1.00D+00 WtEn= 0.00D+00
 Coeff-Com: -0.343D-01 0.187D+00 0.382D+00 0.466D+00
 Coeff:     -0.343D-01 0.187D+00 0.382D+00 0.466D+00
 Gap=     0.106 Goal=   None    Shift=    0.000
 Gap=     0.097 Goal=   None    Shift=    0.000
 RMSDP=2.20D-06 MaxDP=1.99D-04 DE=-1.16D-05 OVMax= 4.66D-04

 Cycle  13  Pass 1  IDiag  1:
 RMSU=  2.11D-06    CP:  1.00D+00  1.01D+00  7.15D-01  1.07D+00
 E= -1501.84656172993     Delta-E=       -0.000002247501 Rises=F Damp=F
 DIIS: error= 2.18D-05 at cycle   5 NSaved=   5.
 NSaved= 5 IEnMin= 5 EnMin= -1501.84656172993     IErMin= 5 ErrMin= 2.18D-05
 ErrMax= 2.18D-05  0.00D+00 EMaxC= 1.00D-01 BMatC= 1.43D-06 BMatP= 3.91D-06
 IDIUse=1 WtCom= 1.00D+00 WtEn= 0.00D+00
 Coeff-Com: -0.236D-01-0.171D+00-0.268D+00 0.242D+00 0.122D+01
 Coeff:     -0.236D-01-0.171D+00-0.268D+00 0.242D+00 0.122D+01
 Gap=     0.106 Goal=   None    Shift=    0.000
 Gap=     0.097 Goal=   None    Shift=    0.000
 RMSDP=3.87D-06 MaxDP=4.23D-04 DE=-2.25D-06 OVMax= 8.59D-04

 Cycle  14  Pass 1  IDiag  1:
 RMSU=  1.39D-06    CP:  1.00D+00  1.01D+00  7.68D-01  1.96D+00  1.55D+00
 E= -1501.84656490223     Delta-E=       -0.000003172298 Rises=F Damp=F
 DIIS: error= 2.38D-05 at cycle   6 NSaved=   6.
 NSaved= 6 IEnMin= 6 EnMin= -1501.84656490223     IErMin= 5 ErrMin= 2.18D-05
 ErrMax= 2.38D-05  0.00D+00 EMaxC= 1.00D-01 BMatC= 1.27D-06 BMatP= 1.43D-06
 IDIUse=1 WtCom= 1.00D+00 WtEn= 0.00D+00
 Coeff-Com:  0.348D-02-0.333D+00-0.597D+00-0.123D+00 0.127D+01 0.778D+00
 Coeff:      0.348D-02-0.333D+00-0.597D+00-0.123D+00 0.127D+01 0.778D+00
 Gap=     0.106 Goal=   None    Shift=    0.000
 Gap=     0.097 Goal=   None    Shift=    0.000
 RMSDP=4.18D-06 MaxDP=4.93D-04 DE=-3.17D-06 OVMax= 1.00D-03

 Cycle  15  Pass 1  IDiag  1:
 RMSU=  8.31D-07    CP:  1.00D+00  1.01D+00  8.30D-01  2.83D+00  2.64D+00
                    CP:  9.41D-01
 E= -1501.84656689061     Delta-E=       -0.000001988383 Rises=F Damp=F
 DIIS: error= 1.10D-05 at cycle   7 NSaved=   7.
 NSaved= 7 IEnMin= 7 EnMin= -1501.84656689061     IErMin= 7 ErrMin= 1.10D-05
 ErrMax= 1.10D-05  0.00D+00 EMaxC= 1.00D-01 BMatC= 2.60D-07 BMatP= 1.27D-06
 IDIUse=1 WtCom= 1.00D+00 WtEn= 0.00D+00
 Coeff-Com:  0.547D-02-0.192D+00-0.350D+00-0.111D+00 0.650D+00 0.508D+00
 Coeff-Com:  0.488D+00
 Coeff:      0.547D-02-0.192D+00-0.350D+00-0.111D+00 0.650D+00 0.508D+00
 Coeff:      0.488D+00
 Gap=     0.106 Goal=   None    Shift=    0.000
 Gap=     0.097 Goal=   None    Shift=    0.000
 RMSDP=8.95D-07 MaxDP=1.38D-04 DE=-1.99D-06 OVMax= 2.33D-04

 Cycle  16  Pass 1  IDiag  1:
 RMSU=  4.63D-07    CP:  1.00D+00  1.01D+00  8.38D-01  3.00D+00  2.78D+00
                    CP:  1.12D+00  9.18D-01
 E= -1501.84656709858     Delta-E=       -0.000000207971 Rises=F Damp=F
 DIIS: error= 5.48D-06 at cycle   8 NSaved=   8.
 NSaved= 8 IEnMin= 8 EnMin= -1501.84656709858     IErMin= 8 ErrMin= 5.48D-06
 ErrMax= 5.48D-06  0.00D+00 EMaxC= 1.00D-01 BMatC= 5.49D-08 BMatP= 2.60D-07
 IDIUse=1 WtCom= 1.00D+00 WtEn= 0.00D+00
 Coeff-Com: -0.489D-04 0.101D+00 0.181D+00 0.276D-01-0.420D+00-0.219D+00
 Coeff-Com:  0.164D+00 0.117D+01
 Coeff:     -0.489D-04 0.101D+00 0.181D+00 0.276D-01-0.420D+00-0.219D+00
 Coeff:      0.164D+00 0.117D+01
 Gap=     0.106 Goal=   None    Shift=    0.000
 Gap=     0.097 Goal=   None    Shift=    0.000
 RMSDP=8.56D-07 MaxDP=1.44D-04 DE=-2.08D-07 OVMax= 2.72D-04

 Cycle  17  Pass 1  IDiag  1:
 RMSU=  5.92D-07    CP:  1.00D+00  1.01D+00  8.48D-01  3.00D+00  2.91D+00
                    CP:  1.26D+00  1.46D+00  1.50D+00
 E= -1501.84656721983     Delta-E=       -0.000000121254 Rises=F Damp=F
 DIIS: error= 3.89D-06 at cycle   9 NSaved=   9.
 NSaved= 9 IEnMin= 9 EnMin= -1501.84656721983     IErMin= 9 ErrMin= 3.89D-06
 ErrMax= 3.89D-06  0.00D+00 EMaxC= 1.00D-01 BMatC= 3.95D-08 BMatP= 5.49D-08
 IDIUse=1 WtCom= 1.00D+00 WtEn= 0.00D+00
 Coeff-Com: -0.295D-02 0.185D+00 0.334D+00 0.807D-01-0.687D+00-0.453D+00
 Coeff-Com: -0.142D+00 0.949D+00 0.735D+00
 Coeff:     -0.295D-02 0.185D+00 0.334D+00 0.807D-01-0.687D+00-0.453D+00
 Coeff:     -0.142D+00 0.949D+00 0.735D+00
 Gap=     0.106 Goal=   None    Shift=    0.000
 Gap=     0.097 Goal=   None    Shift=    0.000
 RMSDP=6.38D-07 MaxDP=1.04D-04 DE=-1.21D-07 OVMax= 2.18D-04

 Cycle  18  Pass 1  IDiag  1:
 RMSU=  2.48D-07    CP:  1.00D+00  1.01D+00  8.53D-01  3.00D+00  3.00D+00
                    CP:  1.40D+00  1.83D+00  2.17D+00  1.42D+00
 E= -1501.84656727020     Delta-E=       -0.000000050370 Rises=F Damp=F
 DIIS: error= 1.98D-06 at cycle  10 NSaved=  10.
 NSaved=10 IEnMin=10 EnMin= -1501.84656727020     IErMin=10 ErrMin= 1.98D-06
 ErrMax= 1.98D-06  0.00D+00 EMaxC= 1.00D-01 BMatC= 1.16D-08 BMatP= 3.95D-08
 IDIUse=1 WtCom= 1.00D+00 WtEn= 0.00D+00
 Coeff-Com: -0.199D-02 0.108D+00 0.195D+00 0.487D-01-0.390D+00-0.268D+00
 Coeff-Com: -0.127D+00 0.443D+00 0.495D+00 0.498D+00
 Coeff:     -0.199D-02 0.108D+00 0.195D+00 0.487D-01-0.390D+00-0.268D+00
 Coeff:     -0.127D+00 0.443D+00 0.495D+00 0.498D+00
 Gap=     0.106 Goal=   None    Shift=    0.000
 Gap=     0.097 Goal=   None    Shift=    0.000
 RMSDP=1.80D-07 MaxDP=3.49D-05 DE=-5.04D-08 OVMax= 5.32D-05

 Cycle  19  Pass 1  IDiag  1:
 RMSU=  1.15D-07    CP:  1.00D+00  1.01D+00  8.53D-01  3.00D+00  3.00D+00
                    CP:  1.43D+00  1.92D+00  2.32D+00  1.57D+00  8.87D-01
 E= -1501.84656727780     Delta-E=       -0.000000007596 Rises=F Damp=F
 DIIS: error= 1.17D-06 at cycle  11 NSaved=  11.
 NSaved=11 IEnMin=11 EnMin= -1501.84656727780     IErMin=11 ErrMin= 1.17D-06
 ErrMax= 1.17D-06  0.00D+00 EMaxC= 1.00D-01 BMatC= 3.07D-09 BMatP= 1.16D-08
 IDIUse=1 WtCom= 1.00D+00 WtEn= 0.00D+00
 Coeff-Com:  0.105D-03-0.187D-01-0.336D-01-0.741D-02 0.778D-01 0.412D-01
 Coeff-Com: -0.178D-01-0.174D+00-0.249D-01 0.334D+00 0.823D+00
 Coeff:      0.105D-03-0.187D-01-0.336D-01-0.741D-02 0.778D-01 0.412D-01
 Coeff:     -0.178D-01-0.174D+00-0.249D-01 0.334D+00 0.823D+00
 Gap=     0.106 Goal=   None    Shift=    0.000
 Gap=     0.097 Goal=   None    Shift=    0.000
 RMSDP=1.38D-07 MaxDP=2.90D-05 DE=-7.60D-09 OVMax= 4.71D-05

 Cycle  20  Pass 1  IDiag  1:
 RMSU=  8.62D-08    CP:  1.00D+00  1.01D+00  8.54D-01  3.00D+00  3.00D+00
                    CP:  1.44D+00  1.99D+00  2.44D+00  1.64D+00  1.06D+00
                    CP:  1.17D+00
 E= -1501.84656728144     Delta-E=       -0.000000003639 Rises=F Damp=F
 DIIS: error= 6.49D-07 at cycle  12 NSaved=  12.
 NSaved=12 IEnMin=12 EnMin= -1501.84656728144     IErMin=12 ErrMin= 6.49D-07
 ErrMax= 6.49D-07  0.00D+00 EMaxC= 1.00D-01 BMatC= 1.07D-09 BMatP= 3.07D-09
 IDIUse=1 WtCom= 1.00D+00 WtEn= 0.00D+00
 Coeff-Com:  0.765D-03-0.490D-01-0.883D-01-0.218D-01 0.183D+00 0.119D+00
 Coeff-Com:  0.361D-01-0.261D+00-0.190D+00 0.794D-02 0.496D+00 0.766D+00
 Coeff:      0.765D-03-0.490D-01-0.883D-01-0.218D-01 0.183D+00 0.119D+00
 Coeff:      0.361D-01-0.261D+00-0.190D+00 0.794D-02 0.496D+00 0.766D+00
 Gap=     0.106 Goal=   None    Shift=    0.000
 Gap=     0.097 Goal=   None    Shift=    0.000
 RMSDP=8.57D-08 MaxDP=1.63D-05 DE=-3.64D-09 OVMax= 2.86D-05

 Cycle  21  Pass 1  IDiag  1:
 RMSU=  5.14D-08    CP:  1.00D+00  1.01D+00  8.54D-01  3.00D+00  3.00D+00
                    CP:  1.45D+00  2.02D+00  2.49D+00  1.69D+00  1.11D+00
                    CP:  1.54D+00  1.32D+00
 E= -1501.84656728256     Delta-E=       -0.000000001123 Rises=F Damp=F
 DIIS: error= 6.88D-07 at cycle  13 NSaved=  13.
 NSaved=13 IEnMin=13 EnMin= -1501.84656728256     IErMin=12 ErrMin= 6.49D-07
 ErrMax= 6.88D-07  0.00D+00 EMaxC= 1.00D-01 BMatC= 7.41D-10 BMatP= 1.07D-09
 IDIUse=1 WtCom= 1.00D+00 WtEn= 0.00D+00
 Coeff-Com:  0.601D-03-0.340D-01-0.612D-01-0.155D-01 0.124D+00 0.842D-01
 Coeff-Com:  0.365D-01-0.154D+00-0.148D+00-0.115D+00 0.113D+00 0.631D+00
 Coeff-Com:  0.538D+00
 Coeff:      0.601D-03-0.340D-01-0.612D-01-0.155D-01 0.124D+00 0.842D-01
 Coeff:      0.365D-01-0.154D+00-0.148D+00-0.115D+00 0.113D+00 0.631D+00
 Coeff:      0.538D+00
 Gap=     0.106 Goal=   None    Shift=    0.000
 Gap=     0.097 Goal=   None    Shift=    0.000
 RMSDP=4.45D-08 MaxDP=9.46D-06 DE=-1.12D-09 OVMax= 1.40D-05

 Cycle  22  Pass 1  IDiag  1:
 RMSU=  2.36D-08    CP:  1.00D+00  1.01D+00  8.55D-01  3.00D+00  3.00D+00
                    CP:  1.45D+00  2.04D+00  2.52D+00  1.70D+00  1.14D+00
                    CP:  1.67D+00  1.63D+00  9.43D-01
 E= -1501.84656728307     Delta-E=       -0.000000000503 Rises=F Damp=F
 DIIS: error= 2.38D-07 at cycle  14 NSaved=  14.
 NSaved=14 IEnMin=14 EnMin= -1501.84656728307     IErMin=14 ErrMin= 2.38D-07
 ErrMax= 2.38D-07  0.00D+00 EMaxC= 1.00D-01 BMatC= 8.82D-11 BMatP= 7.41D-10
 IDIUse=1 WtCom= 1.00D+00 WtEn= 0.00D+00
 Coeff-Com:  0.877D-04-0.394D-02-0.710D-02-0.186D-02 0.137D-01 0.101D-01
 Coeff-Com:  0.715D-02-0.114D-01-0.212D-01-0.413D-01-0.460D-01 0.961D-01
 Coeff-Com:  0.196D+00 0.810D+00
 Coeff:      0.877D-04-0.394D-02-0.710D-02-0.186D-02 0.137D-01 0.101D-01
 Coeff:      0.715D-02-0.114D-01-0.212D-01-0.413D-01-0.460D-01 0.961D-01
 Coeff:      0.196D+00 0.810D+00
 Gap=     0.106 Goal=   None    Shift=    0.000
 Gap=     0.097 Goal=   None    Shift=    0.000
 RMSDP=2.07D-08 MaxDP=4.66D-06 DE=-5.03D-10 OVMax= 6.73D-06

 Cycle  23  Pass 1  IDiag  1:
 RMSU=  1.42D-08    CP:  1.00D+00  1.01D+00  8.55D-01  3.00D+00  3.00D+00
                    CP:  1.45D+00  2.04D+00  2.53D+00  1.71D+00  1.16D+00
                    CP:  1.72D+00  1.73D+00  1.10D+00  1.23D+00
 E= -1501.84656728322     Delta-E=       -0.000000000156 Rises=F Damp=F
 DIIS: error= 1.62D-07 at cycle  15 NSaved=  15.
 NSaved=15 IEnMin=15 EnMin= -1501.84656728322     IErMin=15 ErrMin= 1.62D-07
 ErrMax= 1.62D-07  0.00D+00 EMaxC= 1.00D-01 BMatC= 6.02D-11 BMatP= 8.82D-11
 IDIUse=1 WtCom= 1.00D+00 WtEn= 0.00D+00
 Coeff-Com: -0.407D-03 0.237D-01 0.427D-01 0.109D-01-0.874D-01-0.586D-01
 Coeff-Com: -0.237D-01 0.113D+00 0.101D+00 0.611D-01-0.122D+00-0.424D+00
 Coeff-Com: -0.280D+00 0.607D+00 0.104D+01
 Coeff:     -0.407D-03 0.237D-01 0.427D-01 0.109D-01-0.874D-01-0.586D-01
 Coeff:     -0.237D-01 0.113D+00 0.101D+00 0.611D-01-0.122D+00-0.424D+00
 Coeff:     -0.280D+00 0.607D+00 0.104D+01
 Gap=     0.106 Goal=   None    Shift=    0.000
 Gap=     0.097 Goal=   None    Shift=    0.000
 RMSDP=2.89D-08 MaxDP=6.12D-06 DE=-1.56D-10 OVMax= 9.14D-06

 Cycle  24  Pass 1  IDiag  1:
 RMSU=  1.22D-08    CP:  1.00D+00  1.01D+00  8.55D-01  3.00D+00  3.00D+00
                    CP:  1.45D+00  2.04D+00  2.53D+00  1.71D+00  1.17D+00
                    CP:  1.77D+00  1.85D+00  1.27D+00  1.88D+00  1.98D+00
 E= -1501.84656728335     Delta-E=       -0.000000000129 Rises=F Damp=F
 DIIS: error= 9.32D-08 at cycle  16 NSaved=  16.
 NSaved=16 IEnMin=16 EnMin= -1501.84656728335     IErMin=16 ErrMin= 9.32D-08
 ErrMax= 9.32D-08  0.00D+00 EMaxC= 1.00D-01 BMatC= 2.08D-11 BMatP= 6.02D-11
 IDIUse=1 WtCom= 1.00D+00 WtEn= 0.00D+00
 Coeff-Com: -0.257D-03 0.144D-01 0.260D-01 0.660D-02-0.529D-01-0.357D-01
 Coeff-Com: -0.159D-01 0.656D-01 0.627D-01 0.497D-01-0.436D-01-0.267D+00
 Coeff-Com: -0.239D+00-0.489D-01 0.555D+00 0.923D+00
 Coeff:     -0.257D-03 0.144D-01 0.260D-01 0.660D-02-0.529D-01-0.357D-01
 Coeff:     -0.159D-01 0.656D-01 0.627D-01 0.497D-01-0.436D-01-0.267D+00
 Coeff:     -0.239D+00-0.489D-01 0.555D+00 0.923D+00
 Gap=     0.106 Goal=   None    Shift=    0.000
 Gap=     0.097 Goal=   None    Shift=    0.000
 RMSDP=2.02D-08 MaxDP=4.06D-06 DE=-1.29D-10 OVMax= 6.01D-06

 Cycle  25  Pass 1  IDiag  1:
 RMSU=  5.83D-09    CP:  1.00D+00  1.01D+00  8.55D-01  3.00D+00  3.00D+00
                    CP:  1.45D+00  2.04D+00  2.54D+00  1.72D+00  1.18D+00
                    CP:  1.79D+00  1.92D+00  1.39D+00  2.35D+00  2.81D+00
                    CP:  1.35D+00
 E= -1501.84656728341     Delta-E=       -0.000000000061 Rises=F Damp=F
 DIIS: error= 5.95D-08 at cycle  17 NSaved=  17.
 NSaved=17 IEnMin=17 EnMin= -1501.84656728341     IErMin=17 ErrMin= 5.95D-08
 ErrMax= 5.95D-08  0.00D+00 EMaxC= 1.00D-01 BMatC= 1.40D-11 BMatP= 2.08D-11
 IDIUse=1 WtCom= 1.00D+00 WtEn= 0.00D+00
 Coeff-Com: -0.237D-04 0.948D-03 0.171D-02 0.434D-03-0.326D-02-0.241D-02
 Coeff-Com: -0.214D-02 0.211D-02 0.540D-02 0.131D-01 0.204D-01-0.252D-01
 Coeff-Com: -0.668D-01-0.317D+00-0.212D-01 0.751D+00 0.643D+00
 Coeff:     -0.237D-04 0.948D-03 0.171D-02 0.434D-03-0.326D-02-0.241D-02
 Coeff:     -0.214D-02 0.211D-02 0.540D-02 0.131D-01 0.204D-01-0.252D-01
 Coeff:     -0.668D-01-0.317D+00-0.212D-01 0.751D+00 0.643D+00
 Gap=     0.106 Goal=   None    Shift=    0.000
 Gap=     0.097 Goal=   None    Shift=    0.000
 RMSDP=1.14D-08 MaxDP=2.18D-06 DE=-6.09D-11 OVMax= 3.32D-06

 Cycle  26  Pass 1  IDiag  1:
 RMSU=  4.91D-09    CP:  1.00D+00  1.01D+00  8.55D-01  3.00D+00  3.00D+00
                    CP:  1.45D+00  2.05D+00  2.54D+00  1.72D+00  1.18D+00
                    CP:  1.81D+00  1.96D+00  1.45D+00  2.57D+00  3.00D+00
                    CP:  1.70D+00  7.71D-01
 E= -1501.84656728341     Delta-E=        0.000000000003 Rises=F Damp=F
 DIIS: error= 2.12D-08 at cycle  18 NSaved=  18.
 NSaved=18 IEnMin=17 EnMin= -1501.84656728341     IErMin=18 ErrMin= 2.12D-08
 ErrMax= 2.12D-08  0.00D+00 EMaxC= 1.00D-01 BMatC= 1.39D-12 BMatP= 1.40D-11
 IDIUse=1 WtCom= 1.00D+00 WtEn= 0.00D+00
 Coeff-Com:  0.243D-04-0.155D-02-0.279D-02-0.705D-03 0.577D-02 0.377D-02
 Coeff-Com:  0.125D-02-0.825D-02-0.595D-02-0.234D-03 0.157D-01 0.242D-01
 Coeff-Com:  0.172D-02-0.153D+00-0.906D-01 0.253D+00 0.326D+00 0.632D+00
 Coeff:      0.243D-04-0.155D-02-0.279D-02-0.705D-03 0.577D-02 0.377D-02
 Coeff:      0.125D-02-0.825D-02-0.595D-02-0.234D-03 0.157D-01 0.242D-01
 Coeff:      0.172D-02-0.153D+00-0.906D-01 0.253D+00 0.326D+00 0.632D+00
 Gap=     0.106 Goal=   None    Shift=    0.000
 Gap=     0.097 Goal=   None    Shift=    0.000
 RMSDP=2.36D-09 MaxDP=3.72D-07 DE= 2.73D-12 OVMax= 6.73D-07

[...]
 00000215,-0.00000801,-0.00000364,0.00000368,0.00000269,0.00000326,0.00
 000181,0.00000316,0.00000164,-0.00000052,-0.00000259,0.00000134,-0.000
 00149,-0.00000061,-0.00000061,0.00000130,0.00000361,0.00000133,0.00000
 093,0.00000255,-0.00000052,0.00000017,0.00000024,-0.00000008,-0.000000
 26,0.00000005,-0.00000033,0.00000090,0.00000051,-0.00000093,-0.0000011
 3,0.00000214,-0.00000051,0.00000049,0.00000035,-0.00000014,0.00000019,
 -0.00000218,-0.00000198,-0.00000096,0.00000034,-0.00000111,0.00000577,
 -0.00000311,0.00000393,-0.00000480,-0.00000367,0.00000362,0.04534771,-
 0.12967588,0.08275894,-0.04621946,-0.13159039,0.08403131,0.00667316,-0
 .02651118,0.03582136,0.02969461,0.01659973,-0.01585546,-0.03041910,0.0
 1568761,-0.01551344,-0.00591251,-0.02660538,0.03578058,-0.01780769,0.0
 0837318,-0.00468082,0.00076544,-0.00076959,-0.00142034,-0.00104972,-0.
 00390171,0.00945703,0.00100304,-0.00386852,0.00943713,-0.00076058,-0.0
 0077706,-0.00142592,0.01767053,0.00879550,-0.00475398,0.01271428,0.003
 20039,-0.00434821,0.00012997,0.00010611,0.00049788,-0.00047902,0.00030
 974,-0.00012418,-0.01282928,0.00297080,-0.00438954,0.00045994,0.000300
 47,-0.00010135,-0.00011922,0.00011904,0.00047833,0.00018404,-0.0003451
 3,-0.00050097,-0.00017370,-0.00034862,-0.00050111,0.00263799,0.3739196
 0,0.00000050,-0.00011840,-0.00123744,0.00064244,-0.00339844,0.00573688
 ,0.00845705,-0.00019509,0.00458495,-0.00021881,0.00592327,-0.07337169,
 -0.00851653,-0.00037817,0.00456807,-0.00058478,-0.00341321,0.00573479,
 -0.00000359,0.00051111,-0.00054447,0.00026143,-0.00004379,-0.00003802,
 -0.00025054,-0.00004739,-0.00009884,-0.00000180,0.00013297,0.00017935,
 0.00025220,-0.00004290,-0.00009863,-0.00026064,-0.00004946,-0.00003899
 ,0.00030425,0.00005272,0.00014671,0.00011621,0.00165632,-0.00313124,-0
 .00013794,0.00165793,-0.00313101,-0.00030536,0.00004753,0.00014560,0.0
 0001353,-0.00004410,0.00001477,-0.00001287,-0.00004441,0.00001463,0.00
 000045,-0.00002622,0.00000141,0.00000101,0.00000565,0.00000306,0.00000
 337,-0.00000120,-0.00000161,-0.00000297,0.00000164,-0.00000006,-0.0000
 0009,0.00000324,0.00000003,-0.00000006,-0.00000187,-0.00000021,-0.0000
 0106,-0.00000143,0.00000071,-0.00000124,-0.00000075,0.00000138,-0.0000
 0009,0.00000003,-0.00000014,-0.00000117,0.00000535,0.00000279,0.000003
 00,0.00000184,-0.00000007,-0.00000331,-0.00000109,-0.00000155,0.000000
 14,-0.00000199,-0.00000019,-0.00000003,0.00000323,-0.00000002,0.000001
 33,-0.00000061,0.00000144,0.00000049,0.00000083,-0.00000066,0.00000014
 ,0.00000003,-0.00000011,-0.00000034,0.00000009,0.00000004,0.00000035,0
 .00000003,-0.00000039,-0.00000052,0.00000077,-0.00000066,0.00000036,0.
 00000013,0.00000006,0.00000107,-0.00000150,0.00000076,-0.00000036,0.,-
 0.00000041,-0.00000061,0.00001054,-0.00000993,0.00000054,0.00001050,-0
 .00000997,-0.05732060,0.08227964,-0.15891238,0.05574678,0.08321843,-0.
 15862622,-0.00857573,0.03597137,-0.04067029,-0.03539769,-0.01554719,0.
 02168363,0.03558246,-0.01492096,0.02180999,0.00802796,0.03613023,-0.04
 065512,0.02192668,-0.00475713,0.01001679,-0.00099922,-0.00168119,-0.00
 051176,0.00103383,0.00944267,-0.00738330,-0.00120642,0.00942324,-0.007
 38839,0.00103025,-0.00166131,-0.00050997,-0.02185394,-0.00515809,0.009
 95526,-0.01536727,-0.00423994,0.00524086,-0.00015794,0.00042450,-0.000
 19978,0.00055598,-0.00008191,0.00029550,0.01542478,-0.00394936,0.00527
 331,-0.00055657,-0.00009449,0.00029683,0.00015200,0.00042921,-0.000201
 70,-0.00022107,-0.00049544,-0.00017079,0.00023104,-0.00049120,-0.00017
 027,0.00239269,-0.23177191,0.43287522,0.00006610,0.00000173,0.00000063
 ,-0.00010543,0.00011380,-0.00009257,-0.00026116,-0.00041493,0.00004864
 ,-0.00024169,0.00000756,0.00000229,-0.00026702,0.00040787,-0.00004674,
 -0.00010065,-0.00011646,0.00009164,0.00000119,-0.00000008,0.00000006,-
 0.00001771,-0.00002764,-0.00001142,-0.00001342,-0.00001183,-0.00001545
 ,0.00001180,0.00000009,-0.00000001,-0.00001375,0.00001162,0.00001540,-
 0.00001822,0.00002726,0.00001148,-0.00006318,0.00001417,-0.00001323,0.
 00005716,-0.00003542,0.00003619,0.00005597,0.00003542,-0.00003610,-0.0
 0006279,-0.00001515,0.00001243,0.00000879,-0.00000006,-0.00000859,0.00
 000876,0.00000022,0.00000859,-0.00001132,-0.00000011,-0.00000001,0.000
 00332,-0.00001741,-0.00001403,-0.00000136,0.00001087,0.00000436,-0.000
 00467,0.00000814,-0.00000023,0.00000290,-0.00000047,-0.00000248,-0.000
 00208,-0.00000775,0.00000153,0.00000109,-0.00000518,0.00000277,-0.0000
 0476,0.00000780,0.00000350,-0.00000277,0.00000045,0.00000134,0.0000029
 8,0.00001749,0.00001405,-0.00000452,-0.00000824,0.00000021,-0.00000116
 ,-0.00001090,-0.00000437,-0.00000223,0.00000774,-0.00000154,0.00000289
 ,0.00000052,0.00000249,-0.00000461,-0.00000791,-0.00000352,0.00000068,
 -0.00000318,0.00000006,-0.00000276,-0.00000050,-0.00000134,-0.00000163
 ,0.00000170,0.00000104,0.00000020,-0.00000096,-0.00000133,0.00000063,0
 .00000318,-0.00000006,-0.00000160,-0.00000173,-0.00000104,0.00000100,0
 .00000521,-0.00000276,0.00000019,0.00000097,0.00000134,-0.00000690,-0.
 00000256,-0.00000252,-0.00000694,0.00000243,0.00000250,-0.02425058,-0.
 01867500,0.02206022,-0.02504309,0.01793107,-0.02189416,-0.00534808,0.0
 0074192,-0.00093851,-0.18048685,-0.07628407,0.08870935,-0.18262510,0.0
 7536603,-0.09058456,-0.00531190,-0.00079589,0.00076925,-0.00311754,0.0
 0046679,-0.00048683,-0.00069196,-0.00093071,0.00119575,0.01680735,0.00
 539376,-0.00638373,0.01679278,-0.00462742,0.00578226,-0.00070030,0.000
 91188,-0.00119571,-0.00331928,-0.00057882,0.00054543,0.00010050,0.0046
 0415,-0.00561736,0.00016856,-0.00001407,0.00004459,0.00069381,0.001167
 96,-0.00134590,0.00046630,-0.00475040,0.00569212,0.00069085,-0.0011312
 8,0.00138560,0.00016450,0.00002415,-0.00003525,0.00073301,0.00080961,-
 0.00102868,0.00074413,-0.00079751,0.00102201,-0.00036152,0.00017330,-0
 .00020272,0.72746814,0.00000207,-0.00014609,-0.00006961,0.00017273,0.0
 0005782,0.00004597,0.00006958,0.00012134,-0.00015454,0.00000777,-0.001
 04547,-0.00019538,-0.00007654,0.00012770,-0.00015560,-0.00017581,0.000
 05238,0.00004731,-0.00000009,0.00001204,-0.00000947,0.00000215,0.00000
 235,-0.00000513,-0.00000448,-0.00000298,0.00000125,0.00000008,0.000002
 84,0.00000301,0.00000428,-0.00000267,0.00000155,-0.00000252,0.00000282
 ,-0.00000492,0.00000726,-0.00001247,0.00003998,-0.00004122,0.00006852,
 0.00000449,0.00004098,0.00006996,0.00000390,-0.00000829,-0.00001289,0.
 00004021,-0.00000048,0.00000077,0.00000065,0.00000063,0.00000078,0.000
 00081,-0.00000011,0.00000040,-0.00000030,0.00000097,-0.00000134,-0.000
 00061,-0.00000015,0.00000045,0.00000040,-0.00000065,0.00000087,0.00000
 049,0.00000033,0.00000018,-0.00000008,-0.00000014,-0.00000123,0.000000
 42,0.00000004,-0.00000069,-0.00000021,-0.00000032,0.00000083,0.0000004
 6,-0.00000010,0.,-0.00000008,-0.00000089,-0.00000103,-0.00000034,0.000
 00055,0.00000073,0.00000049,0.00000012,0.00000025,0.00000032,0.0000001
 2,-0.00000109,0.00000039,-0.00000028,0.00000018,-0.00000003,0.00000021
 ,0.00000069,0.00000039,0.00000013,0.00000069,-0.00000030,0.00000005,0.
 ,-0.00000010,-0.00000037,0.00000017,0.,0.00000023,0.00000013,-0.000000
 37,-0.00000013,0.00000074,-0.00000030,0.00000034,0.00000015,-0.0000000
 1,-0.00000001,-0.00000059,-0.00000026,-0.00000023,0.00000014,-0.000000
 34,0.00000062,-0.00000012,0.00000019,-0.00000074,-0.00000009,0.0000002
 4,-0.03116580,0.01612239,-0.01416207,0.03042250,0.01704520,-0.01450712
 ,0.00142547,-0.00351912,0.00920525,-0.05664333,-0.14552782,0.10005872,
 0.05572355,-0.14304663,0.09849792,-0.00147946,-0.00356087,0.00921809,-
 0.01307506,0.00312611,-0.00402698,0.00038080,0.00032176,-0.00011929,-0
 .00549306,-0.02856438,0.03884116,0.00625966,-0.02854810,0.03896846,-0.
 00039974,0.00033174,-0.00014262,0.01296246,0.00336098,-0.00398853,0.01
 787027,0.00881294,-0.00526104,-0.00022599,-0.00030515,-0.00045344,-0.0
 0130152,-0.00103192,-0.00201036,-0.01801505,0.00838779,-0.00519439,0.0
 0133831,-0.00102872,-0.00198177,0.00023581,-0.00030046,-0.00045368,-0.
 00010096,0.00005208,0.00045044,0.00011297,0.00003899,0.00046995,0.0001
 7351,-0.02177834,0.02513912,0.00371709,0.36493560,-0.00000223,0.000234
 59,0.00008465,-0.00020622,-0.00014075,-0.00007654,0.00017771,-0.000108
 46,0.00019802,0.00000048,-0.00000269,-0.00064775,-0.00017667,-0.000110
 88,0.00019752,0.00020877,-0.00013710,-0.00007587,0.00000014,-0.0000182
 8,0.00002693,-0.00000547,-0.00000296,-0.00000149,0.00000243,0.00000461
 ,-0.00000092,0.00000002,-0.00000018,-0.00000247,-0.00000255,0.00000459
 ,-0.00000089,0.00000549,-0.00000280,-0.00000145,-0.00000058,0.00001434
 ,-0.00004366,0.00007832,-0.00010451,-0.00001935,-0.00007618,-0.0001058
 9,-0.00001960,0.00000026,0.00001431,-0.00004363,0.00000191,-0.00000240
 ,0.00000132,-0.00000185,-0.00000243,0.00000133,0.,-0.00000155,0.000000
 97,0.00000049,-0.00000047,-0.00000008,0.00000001,0.00000019,0.00000041
 ,0.00000057,0.00000036,0.00000020,0.00000021,0.00000002,0.00000013,-0.
 00000004,-0.00000039,0.00000053,-0.00000023,-0.00000015,-0.00000039,-0
 .00000001,0.00000032,0.00000039,-0.00000027,0.,-0.00000013,-0.00000048
 ,-0.00000045,-0.00000005,-0.00000059,0.00000033,0.00000020,-0.00000002
 ,0.00000016,0.00000040,0.00000004,-0.00000037,0.00000052,-0.00000020,0
 .00000002,0.00000014,0.,0.00000030,0.00000039,0.00000010,0.00000018,-0
 .00000046,0.00000027,0.,-0.00000013,-0.00000032,0.00000015,-0.00000017
 ,-0.00000006,-0.00000005,-0.00000037,-0.00000010,0.00000018,-0.0000004
 6,0.00000031,0.00000016,-0.00000017,0.00000024,-0.00000013,-0.00000040
 ,0.00000006,-0.00000005,-0.00000037,0.00000085,0.00000031,0.00000001,-
 0.00000087,0.00000030,0.00000002,0.03711510,-0.01372419,0.02222099,-0.
 03695434,-0.01437983,0.02209069,-0.00175097,0.00918996,-0.00708693,0.0
 6473508,0.09902568,-0.17713491,-0.06659552,0.09795897,-0.17747779,0.00
 158185,0.00921958,-0.00708137,0.01555279,-0.00412306,0.00437011,-0.000
 44969,-0.00018544,0.00040269,0.00655586,0.03909141,-0.04194635,-0.0071
 5952,0.03895147,-0.04194806,0.00045065,-0.00017495,0.00040105,-0.01548
 927,-0.00441592,0.00433698,-0.02119828,-0.00475768,0.01089523,0.000256
 36,-0.00056790,-0.00020443,0.00149653,-0.00193287,-0.00029671,0.021260
 55,-0.00436903,0.01095459,-0.00145774,-0.00196317,-0.00029696,-0.00024
 482,-0.00057256,-0.00020507,0.00012867,0.00042245,-0.00016056,-0.00013
 459,0.00041820,-0.00015859,-0.00020453,0.02533027,-0.03071480,0.002935
 91,-0.28075971,0.45790600,0.00001247,0.00000027,0.00000017,-0.00000293
 ,-0.00001219,0.00001096,-0.00002651,-0.00001451,-0.00001898,0.00000112
 ,0.00000684,0.00000697,-0.00002444,0.00001350,0.00001810,-0.00000270,0
 .00001271,-0.00001125,0.00002448,0.00000020,0.00000005,-0.00001198,-0.
 00000394,0.00000063,-0.00000195,-0.00000234,-0.00000632,0.00000294,0.0
 0000002,-0.00000001,-0.00000205,0.00000231,0.00000634,-0.00001200,0.00
 000370,-0.00000067,-0.00000759,0.00000582,0.00000039,0.00000522,-0.000
 00548,-0.00001066,0.00000514,0.00000526,0.00001072,-0.00000724,-0.0000
 0594,-0.00000049,0.00000375,-0.00000250,-0.00000424,0.00000369,0.00000
 258,0.00000425,0.00000069,0.,0.,0.00000063,-0.00000858,-0.00000619,-0.
 00000107,0.00000540,0.00000202,-0.00000089,0.00000371,-0.00000113,0.00
 000172,-0.00000015,-0.00000157,-0.00000168,-0.00000355,0.00000093,0.00
 000030,-0.00000251,0.00000169,-0.00000202,0.00000315,0.00000134,-0.000
 00178,0.,0.00000109,0.00000044,0.00000858,0.00000619,-0.00000082,-0.00
 000372,0.00000113,-0.00000096,-0.00000542,-0.00000201,-0.00000174,0.00
 000351,-0.00000093,0.00000172,0.00000018,0.00000157,-0.00000196,-0.000
 00318,-0.00000134,0.00000088,-0.00000110,0.00000011,-0.00000178,-0.000
 00003,-0.00000109,-0.00000097,0.00000129,0.00000075,0.00000031,-0.0000
 0065,-0.00000054,0.00000086,0.00000112,-0.00000012,-0.00000094,-0.0000
 0131,-0.00000075,0.00000026,0.00000251,-0.00000169,0.00000029,0.000000
 66,0.00000054,-0.00000224,-0.00000079,-0.00000181,-0.00000227,0.000000
 75,0.00000181,0.00115432,-0.00192516,0.00220646,0.00111097,0.00190500,
 -0.00230200,-0.00082011,0.00044347,-0.00054188,-0.01316085,0.00105345,
 -0.00140934,-0.01343066,-0.00136695,0.00137840,-0.00082787,-0.00046317
 ,0.00054166,0.00023313,-0.00004862,0.00004628,-0.00011614,-0.00016898,
 0.00021581,0.00070896,0.00135191,-0.00156898,0.00070959,-0.00130159,0.
 00161946,-0.00012137,0.00016589,-0.00022226,0.00023018,0.00005395,-0.0
 0004224,0.00002175,-0.00020675,0.00025995,0.00005261,-0.00002699,0.000
 02990,0.00060592,-0.00054520,0.00064704,0.00002353,0.00020755,-0.00025
 697,0.00060648,0.00055630,-0.00065109,0.00005285,0.00002757,-0.0000304
 2,-0.00001162,-0.00004321,0.00005113,-0.00001207,0.00003983,-0.0000538
 3,0.00037311,0.00001069,-0.00000043,-0.33257503,-0.00272009,-0.0004338
 5,0.35524588,0.00000028,-0.00001568,-0.00001476,0.00002125,-0.00002665
 ,0.00001529,0.00011252,0.00002600,0.00003885,0.00000684,-0.00064498,-0
 .00069742,-0.00011355,0.00002414,0.00003895,-0.00002084,-0.00002682,0.
 00001504,0.00000021,0.00000293,-0.00000238,0.00000268,0.00000088,0.000
 00052,-0.00000185,-0.00000048,-0.00000114,0.00000002,0.00000038,0.0000
 0151,0.00000182,-0.00000040,-0.00000101,-0.00000292,0.00000090,0.00000
 050,0.00001085,-0.00000101,0.00000453,0.00000149,0.00001629,-0.0000015
 0,-0.00000169,0.00001636,-0.00000130,-0.00001098,-0.00000133,0.0000044
 9,-0.00000028,-0.00000075,0.00000006,0.00000037,-0.00000069,0.00000014
 ,0.,0.00000006,-0.00000010,-0.00000037,0.00000043,0.00000008,0.0000000
 5,-0.00000010,-0.00000025,-0.00000021,-0.00000031,-0.00000015,-0.00000
 011,-0.00000004,-0.00000006,0.00000009,0.00000046,-0.00000032,0.000000
 05,0.00000018,0.00000024,0.00000003,-0.00000030,-0.00000021,0.00000010
 ,0.00000002,0.00000008,0.00000037,0.00000060,0.00000020,0.00000020,-0.
 00000037,-0.00000013,-0.00000007,-0.00000020,-0.00000028,-0.00000013,0
 .00000053,-0.00000034,0.00000014,-0.00000003,-0.00000003,-0.00000006,-
 0.00000036,-0.00000024,-0.00000002,-0.00000027,0.00000025,-0.00000013,
 0.00000001,0.00000005,0.00000023,-0.00000009,0.00000004,-0.00000002,-0
 .00000003,0.00000022,0.00000004,-0.00000025,0.00000025,-0.00000024,-0.
 00000012,0.00000003,-0.00000005,0.00000023,0.00000020,0.00000003,-0.00
 000002,0.00000023,-0.00000047,-0.00000005,-0.00000016,0.00000043,-0.00
 000003,-0.00000012,-0.00075156,0.00155988,0.00526042,0.00073149,0.0016
 0981,0.00521969,-0.00094147,0.00023421,-0.00012060,-0.01806249,0.00324
 802,-0.00034854,0.01774929,0.00356183,-0.00028280,0.00092175,0.0002432
 0,-0.00010836,-0.00012424,-0.00003210,-0.00019098,-0.00015379,0.000003
 56,0.00034765,-0.00125169,-0.00167130,-0.00251865,0.00130197,-0.001672
 24,-0.00248587,0.00015067,0.00000957,0.00034387,0.00012959,-0.00002875
 ,-0.00019154,0.00031557,-0.00000092,-0.00015929,0.00004357,0.00001741,
 0.00003343,0.00058717,-0.00002083,0.00030624,-0.00031475,-0.00000295,-
 0.00016484,-0.00057604,-0.00002141,0.00029276,-0.00004298,0.00001711,0
 .00003277,0.00001040,0.00015148,0.00013051,-0.00001377,0.00015203,0.00
 012950,0.00001060,-0.00077512,0.00017797,-0.00272027,-0.04462126,0.012
 78585,0.00299490,0.03866970,0.00000009,-0.00000618,-0.00001268,0.00001
 999,-0.00003156,-0.00000058,0.00011276,0.00002935,0.00004191,0.0000069
 6,-0.00069678,-0.00037141,-0.00011344,0.00002726,0.00004170,-0.0000194
 0,-0.00003191,-0.00000064,0.00000003,-0.00000053,0.00000009,0.00000159
 ,-0.00000034,0.00000028,-0.00000115,-0.00000010,-0.00000035,0.,0.00000
 014,0.00000079,0.00000115,-0.00000008,-0.00000034,-0.00000161,-0.00000
 037,0.00000028,0.00001118,-0.00000027,0.00000006,0.00000631,0.00000275
 ,-0.00000970,-0.00000633,0.00000265,-0.00000969,-0.00001119,-0.0000005
 0,0.00000003,-0.00000040,0.00000035,0.00000001,0.00000040,0.00000036,0
 .00000002,0.,0.00000015,0.00000005,-0.00000043,0.00000049,0.00000016,0
 .00000005,-0.00000016,-0.00000020,0.00000016,-0.00000028,-0.00000023,-
 0.00000017,-0.00000005,0.,0.,0.00000039,-0.00000022,0.00000004,0.00000
 022,0.00000013,0.00000007,-0.00000029,-0.00000022,0.00000009,0.,0.0000
 0007,0.00000042,0.00000052,0.00000018,-0.00000015,-0.00000030,-0.00000
 023,-0.00000004,-0.00000017,-0.00000021,-0.00000001,0.00000040,-0.0000
 0022,0.00000018,-0.00000004,0.,-0.00000007,-0.00000030,-0.00000023,-0.
 00000008,-0.00000025,0.00000019,-0.00000010,0.,0.00000006,0.00000017,-
 0.00000008,0.00000006,-0.00000007,-0.00000003,0.00000020,0.00000008,-0
 .00000025,0.00000019,-0.00000017,-0.00000009,0.00000006,-0.00000005,0.
 00000022,0.00000012,0.00000007,-0.00000002,0.00000020,-0.00000027,0.00
 000006,-0.00000013,0.00000027,0.00000006,-0.00000013,0.00067941,0.0052
 8671,-0.00019669,-0.00077574,0.00527726,-0.00020327,0.00109809,-0.0001
 1343,0.00024990,0.02130328,0.00002101,0.00342936,-0.02133676,-0.000382
 34,0.00338537,-0.00109812,-0.00013507,0.00024867,0.00013842,-0.0001792
 8,0.00002849,0.00013302,0.00033471,-0.00014010,0.00147836,-0.00250204,
 -0.00085448,-0.00142760,-0.00253228,-0.00085416,-0.00013924,0.00033252
 ,-0.00014088,-0.00013458,-0.00018173,0.00002809,-0.00037326,-0.0001576
 3,0.00005106,-0.00005375,0.00003535,0.00000689,-0.00066154,0.00030557,
 -0.00010940,0.00037608,-0.00015014,0.00005131,0.00065725,0.00031917,-0
 .00010938,0.00005318,0.00003642,0.00000694,-0.00000858,0.00013587,0.00
 010379,0.00000577,0.00013610,0.00010369,0.00000039,0.00009100,-0.00075
 372,-0.00043226,0.01261690,-0.04844310,0.00051126,-0.01788907,0.044432
 22\\0.,0.00000002,-0.00000004,-0.00000014,-0.00000015,0.00000019,-0.00
 000016,0.00000015,0.00000029,0.00000008,-0.00000003,-0.00000004,-0.000
 00022,-0.00000016,-0.00000029,-0.00000012,0.00000011,-0.00000016,-0.00
 000003,-0.00000008,-0.00000051,-0.00000024,-0.00000030,0.00000022,0.00
 000191,-0.00000152,0.00000076,0.00000033,-0.00000110,0.00000119,-0.000
 00054,-0.00000010,0.00000038,0.00000032,0.00000026,0.00000003,0.,-0.00
 000007,0.00000045,0.00000011,-0.00000002,0.00000044,0.00000009,0.00000
 007,-0.00000042,0.00000003,0.00000015,-0.00000044,0.00000005,-0.000000
 44,0.00000036,0.,0.00000040,-0.00000019,0.00000041,-0.00000148,-0.0000
 0011,0.00000076,0.00000129,-0.00000102,0.00000027,-0.00000025,-0.00000
 017,-0.00000189,0.00000102,0.00000029,-0.00000004,0.00000024,0.0000005
 4,-0.00000001,-0.00000036,0.00000059,-0.00000324,0.00000160,-0.0000008
 8,-0.00000032,-0.00000054,0.00000104,-0.00000004,-0.00000046,0.0000003
 9,-0.00000068,0.00000133,-0.00000080,0.00000095,0.00000052,0.00000010,
 -0.00000017,0.00000071,-0.00000035,0.00000022,0.00000024,-0.00000070,0
 .00000007,0.00000054,-0.00000027,0.00000023,0.00000097,-0.00000042,0.0
 0000004,0.00000015,-0.00000101,0.,0.00000045,-0.00000041,-0.00000003,-
 0.00000034,0.00000094,-0.00000006,-0.00000032,0.00000003,0.,-0.0000000
 5,0.00000089,-0.00000041,-0.00000026,-0.00000115,0.00000038,0.00000052
 ,-0.00000131,0.00000019,0.,-0.00000003,-0.00000016,-0.00000017,0.00000
 027,0.00000175,-0.00000255,0.00000133,0.00000037,-0.00000030,0.,0.0000
 0040,0.00000022,0.00000012,-0.00000007,-0.00000047,-0.00000027,0.00000
 030,-0.00000011,-0.00000026,0.00000037,0.00000016,0.00000021,-0.000000
 13,0.00000051,0.00000021,0.00000014,-0.00000067,-0.00000041,-0.0000001
 7,-0.00000042,-0.00000036,-0.00000006,-0.00000036,-0.00000036,-0.00000
 007,0.00000033,0.00000040,-0.00000024,0.00000043,0.00000035,0.00000016
 ,0.00000072,0.00000035,0.00000008,-0.00000053,-0.00000058,0.,-0.000000
 74,-0.00000062,-0.00000011,-0.00000040,-0.00000033,0.00000010,0.000000
 52,0.00000059,-0.00000015,0.00000039,0.00000033,-0.00000004,0.00000075
 ,0.00000062,-0.00000002,-0.00000073,-0.00000063,-0.00000004,0.00000073
 ,0.00000062,-0.00000018,0.,0.,-0.00000015,-0.00000002,0.00000002,-0.00
 000020,0.,0.\\\@
 The archive entry for this job was punched.


 DEPRESSION IS WAITING FOR YOUR SHIP TO COME IN,
 AND FINDING OUT IT'S THE TITANIC.
 Job cpu time:       0 days 21 hours 16 minutes 53.7 seconds.
 Elapsed time:       0 days  0 hours 53 minutes 16.1 seconds.
 File lengths (MBytes):  RWF=   6480 Int=      0 D2E=      0 Chk=     61 Scr=      2
 Normal termination of Gaussian 16 at Fri Mar 14 14:25:24 2025.
