 Entering Gaussian System, Link 0=g16
 Input=molecule.gjf
 Output=molecule.log
 Initial command:
 /share/apps/softwares/gaussian/16/g16/l1.exe "/share/home/kae/gaussian/corrtectedOI/predict/test1h/Gau-9602.inp" -scrdir="/share/home/kae/gaussian/corrtectedOI/predict/test1h/"
 Entering Link 1 = /share/apps/softwares/gaussian/16/g16/l1.exe PID=      9604.
  
 Copyright (c) 1988-2019, Gaussian, Inc.  All Rights Reserved.
  
 This is part of the Gaussian(R) 16 program.  It is based on
 the Gaussian(R) 09 system (copyright 2009, Gaussian, Inc.),
 the Gaussian(R) 03 system (copyright 2003, Gaussian, Inc.),
 the Gaussian(R) 98 system (copyright 1998, Gaussian, Inc.),
 the Gaussian(R) 94 system (copyright 1995, Gaussian, Inc.),
 the Gaussian 92(TM) system (copyright 1992, Gaussian, Inc.),
 the Gaussian 90(TM) system (copyright 1990, Gaussian, Inc.),
 the Gaussian 88(TM) system (copyright 1988, Gaussian, Inc.),
 the Gaussian 86(TM) system (copyright 1986, Carnegie Mellon
 University), and the Gaussian 82(TM) system (copyright 1983,
 Carnegie Mellon University). Gaussian is a federally registered
 trademark of Gaussian, Inc.
  
 This software contains proprietary and confidential information,
 including trade secrets, belonging to Gaussian, Inc.
  
 This software is provided under written license and may be
 used, copied, transmitted, or stored only in accord with that
 written license.
  
 The following legend is applicable only to US Government
 contracts under FAR:
  
                    RESTRICTED RIGHTS LEGEND
  
 Use, reproduction and disclosure by the US Government is
 subject to restrictions as set forth in subparagraphs (a)
 and (c) of the Commercial Computer Software - Restricted
 Rights clause in FAR 52.227-19.
  
 Gaussian, Inc.
 340 Quinnipiac St., Bldg. 40, Wallingford CT 06492
  
  
 ---------------------------------------------------------------
 Warning -- This program may not be used in any manner that
 competes with the business of Gaussian, Inc. or will provide
 assistance to any competitor of Gaussian, Inc.  The licensee
 of this program is prohibited from giving any competitor of
 Gaussian, Inc. access to this program.  By using this program,
 the user acknowledges that Gaussian, Inc. is engaged in the
 business of creating and licensing software in the field of
 computational chemistry and represents and warrants to the
 licensee that it is not a competitor of Gaussian, Inc. and that
 it will not use this program in any manner prohibited above.
 ---------------------------------------------------------------
  

 Cite this work as:
 Gaussian 16, Revision C.01,
 M. J. Frisch, G. W. Trucks, H. B. Schlegel, G. E. Scuseria, 
 M. A. Robb, J. R. Cheeseman, G. Scalmani, V. Barone, 
 G. A. Petersson, H. Nakatsuji, X. Li, M. Caricato, A. V. Marenich, 
 J. Bloino, B. G. Janesko, R. Gomperts, B. Mennucci, H. P. Hratchian, 
 J. V. Ortiz, A. F. Izmaylov, J. L. Sonnenberg, D. Williams-Young, 
 F. Ding, F. Lipparini, F. Egidi, J. Goings, B. Peng, A. Petrone, 
 T. Henderson, D. Ranasinghe, V. G. Zakrzewski, J. Gao, N. Rega, 
 G. Zheng, W. Liang, M. Hada, M. Ehara, K. Toyota, R. Fukuda, 
 J. Hasegawa, M. Ishida, T. Nakajima, Y. Honda, O. Kitao, H. Nakai, 
 T. Vreven, K. Throssell, J. A. Montgomery, Jr., J. E. Peralta, 
 F. Ogliaro, M. J. Bearpark, J. J. Heyd, E. N. Brothers, K. N. Kudin, 
 V. N. Staroverov, T. A. Keith, R. Kobayashi, J. Normand, 
 K. Raghavachari, A. P. Rendell, J. C. Burant, S. S. Iyengar, 
 J. Tomasi, M. Cossi, J. M. Millam, M. Klene, C. Adamo, R. Cammi, 
 J. W. Ochterski, R. L. Martin, K. Morokuma, O. Farkas, 
 J. B. Foresman, and D. J. Fox, Gaussian, Inc., Wallingford CT, 2019.
 
 ******************************************
 Gaussian 16:  ES64L-G16RevC.01  3-Jul-2019
                20-Aug-2025 
 ******************************************
 %mem=56GB
 %nprocshared=24
 Will use up to   24 processors via shared memory.
 %chk=molecule.chk
 -----------------------------------------------
 #p opt=recalc=5 freq Ub3lyp/6-31g(d,p) em=gd3bj
 -----------------------------------------------
 1/10=4,18=20,19=15,26=3,38=1,71=5/1,3;
 2/9=110,12=2,17=6,18=5,40=1/2;
 3/5=1,6=6,7=101,11=2,25=1,30=1,71=2,74=-5,116=2,124=41,140=1/1,2,3;
 4//1;
 5/5=2,38=5/2;
 8/6=4,10=90,11=11/1;
 11/6=1,8=1,9=11,15=111,16=1/1,2,10;
 10/6=1,13=1/2;
 6/7=2,8=2,9=2,10=2,28=1/1;
 7/10=1,25=1/1,2,3,16;
 1/10=4,18=20,19=15,26=3,71=5/3(3);
 2/9=110/2;
 7/9=1,25=1,44=-1/16;
 99//99;
 2/9=110/2;
 3/5=1,6=6,7=101,11=2,25=1,30=1,71=2,74=-5,116=2,124=41,140=1/1,2,3;
 4/5=5,16=3,69=1/1;
 5/5=2,38=5/2;
 8/6=4,10=90,11=11/1;
 11/6=1,8=1,9=11,15=111,16=1/1,2,10;
 10/6=1,13=1/2;
 7/10=1,25=1/1,2,3,16;
 1/18=20,19=15,26=3,71=5/3(-8);
 2/9=110/2;
 6/7=2,8=2,9=2,10=2,19=2,28=1/1;
 7/9=1,25=1,44=-1/16;
 99/9=1/99;
 Leave Link    1 at Wed Aug 20 10:09:48 2025, MaxMem=  7516192768 cpu:               1.6 elap:               0.2
 (Enter /share/apps/softwares/gaussian/16/g16/l101.exe)
 --------
 molecule
 --------
 Symbolic Z-matrix:
 Charge =  0 Multiplicity = 2
 C                    -2.23033  0.         0. 
 C                    -2.95018  -0.62355   1.03036 
 C                    -4.34133  -0.62279   1.02954 
 C                    -5.06016  0.        0. 
 C                    -4.34132   0.62279  -1.02954 
 C                    -2.95018   0.62355  -1.03036 
 C                    -0.74994  0.         0. 
 C                    -0.03573   0.11974   1.20024 
 C                     1.35234   0.11589   1.18555 
 C                     2.09035   0.        0.00001 
 C                     1.35234  -0.11589  -1.18554 
 C                    -0.03573  -0.11974  -1.20022 
 H                    -2.41537  -1.13377   1.82509 
 H                    -4.88422  -1.11495   1.83009 
 H                    -4.88422   1.11495  -1.83009 
 H                    -2.41537   1.13377  -1.82509 
 H                    -0.55848   0.24261   2.14047 
 H                    -0.55847  -0.24261  -2.14047 
 C                     3.5639    0.        0.00001 
 C                     4.4129   -1.15475   0.11188 
 C                     5.78047  -0.72799   0.07057 
 C                     4.15152  -2.52758   0.24463 
 C                     6.8309   -1.6241    0.15746 
 C                     5.20002  -3.44189   0.33331 
 C                     6.51883  -2.98248   0.28903 
 H                     7.86495  -1.3017    0.12628 
 C                     4.4129    1.15475  -0.11188 
 C                     4.15151   2.52758  -0.24463 
 C                     5.78047   0.72799  -0.07057 
 C                     5.20001   3.44189  -0.33332 
 C                     6.8309    1.62411  -0.15746 
 C                     6.51882   2.98248  -0.28904 
 H                     4.99172   4.49884  -0.43546 
 H                     7.86495   1.3017   -0.12629 
 C                    -7.25142   1.20086   0.24815 
 C                    -7.25142  -1.20086  -0.24816 
 C                    -6.58796   2.43612   0.53431 
 C                    -8.69553   1.19565   0.23998 
 C                    -8.69553  -1.19565  -0.23999 
 C                    -6.58796  -2.43612  -0.53432 
 C                    -7.29713   3.58399   0.76924 
 H                    -5.50523   2.45089   0.56873 
 C                    -9.39572   2.41626   0.48695 
 C                    -9.39572  -2.41626  -0.48695 
 H                    -5.50523  -2.4509   -0.56873 
 C                    -7.29713  -3.58399  -0.76924 
 C                    -8.72041   3.57872   0.74024 
 H                    -6.77125   4.50881   0.98558 
 H                    -10.48184   2.39745   0.47155 
 C                    -8.72041  -3.57872  -0.74025 
 H                    -10.48184  -2.39745  -0.47156 
 H                    -6.77125  -4.50881  -0.98558 
 H                    -9.26459   4.49924   0.92697 
 H                    -9.26459  -4.49924  -0.92698 
 C                    -6.54966  0.        0. 
 C                    -9.37682   0.       0. 
 H                    -10.46388   0.       -0.00001 
 H                     4.99173  -4.49884   0.43545 
 H                     7.3148    3.69421  -0.3581 
 H                     3.15145   2.90634  -0.2807 
 H                     1.87743  -0.21419  -2.11264 
 H                     1.87742   0.2142    2.11265 
 H                     3.15145  -2.90635   0.2807 
 H                     7.31481  -3.6942    0.35808 
 
 ITRead=  0  0  0  0  0  0  0  0  0  0  0  0  0  0  0  0  0  0  0  0
 ITRead=  0  0  0  0  0  0  0  0  0  0  0  0  0  0  0  0  0  0  0  0
 ITRead=  0  0  0  0  0  0  0  0  0  0  0  0  0  0  0  0  0  0  0  0
 ITRead=  0  0  0  0
 MicOpt= -1 -1 -1 -1 -1 -1 -1 -1 -1 -1 -1 -1 -1 -1 -1 -1 -1 -1 -1 -1
 MicOpt= -1 -1 -1 -1 -1 -1 -1 -1 -1 -1 -1 -1 -1 -1 -1 -1 -1 -1 -1 -1
 MicOpt= -1 -1 -1 -1 -1 -1 -1 -1 -1 -1 -1 -1 -1 -1 -1 -1 -1 -1 -1 -1
 MicOpt= -1 -1 -1 -1
 NAtoms=     64 NQM=       64 NQMF=       0 NMMI=      0 NMMIF=      0
                NMic=       0 NMicF=      0.
                    Isotopes and Nuclear Properties:
 (Nuclear quadrupole moments (NQMom) in fm**2, nuclear magnetic moments (NMagM)
  in nuclear magnetons)

  Atom         1           2           3           4           5           6           7           8           9          10
 IAtWgt=          12          12          12          12          12          12          12          12          12          12
 AtmWgt=  12.0000000  12.0000000  12.0000000  12.0000000  12.0000000  12.0000000  12.0000000  12.0000000  12.0000000  12.0000000
 NucSpn=           0           0           0           0           0           0           0           0           0           0
 AtZEff=  -0.0000000  -0.0000000  -0.0000000  -0.0000000  -0.0000000  -0.0000000  -0.0000000  -0.0000000  -0.0000000  -0.0000000
 NQMom=    0.0000000   0.0000000   0.0000000   0.0000000   0.0000000   0.0000000   0.0000000   0.0000000   0.0000000   0.0000000
 NMagM=    0.0000000   0.0000000   0.0000000   0.0000000   0.0000000   0.0000000   0.0000000   0.0000000   0.0000000   0.0000000
 AtZNuc=   6.0000000   6.0000000   6.0000000   6.0000000   6.0000000   6.0000000   6.0000000   6.0000000   6.0000000   6.0000000

  Atom        11          12          13          14          15          16          17          18          19          20
 IAtWgt=          12          12           1           1           1           1           1           1          12          12
 AtmWgt=  12.0000000  12.0000000   1.0078250   1.0078250   1.0078250   1.0078250   1.0078250   1.0078250  12.0000000  12.0000000
 NucSpn=           0           0           1           1           1           1           1           1           0           0
 AtZEff=  -0.0000000  -0.0000000  -0.0000000  -0.0000000  -0.0000000  -0.0000000  -0.0000000  -0.0000000  -0.0000000  -0.0000000
 NQMom=    0.0000000   0.0000000   0.0000000   0.0000000   0.0000000   0.0000000   0.0000000   0.0000000   0.0000000   0.0000000
 NMagM=    0.0000000   0.0000000   2.7928460   2.7928460   2.7928460   2.7928460   2.7928460   2.7928460   0.0000000   0.0000000
 AtZNuc=   6.0000000   6.0000000   1.0000000   1.0000000   1.0000000   1.0000000   1.0000000   1.0000000   6.0000000   6.0000000

  Atom        21          22          23          24          25          26          27          28          29          30
 IAtWgt=          12          12          12          12          12           1          12          12          12          12
 AtmWgt=  12.0000000  12.0000000  12.0000000  12.0000000  12.0000000   1.0078250  12.0000000  12.0000000  12.0000000  12.0000000
 NucSpn=           0           0           0           0           0           1           0           0           0           0
 AtZEff=  -0.0000000  -0.0000000  -0.0000000  -0.0000000  -0.0000000  -0.0000000  -0.0000000  -0.0000000  -0.0000000  -0.0000000
 NQMom=    0.0000000   0.0000000   0.0000000   0.0000000   0.0000000   0.0000000   0.0000000   0.0000000   0.0000000   0.0000000
 NMagM=    0.0000000   0.0000000   0.0000000   0.0000000   0.0000000   2.7928460   0.0000000   0.0000000   0.0000000   0.0000000
 AtZNuc=   6.0000000   6.0000000   6.0000000   6.0000000   6.0000000   1.0000000   6.0000000   6.0000000   6.0000000   6.0000000

  Atom        31          32          33          34          35          36          37          38          39          40
 IAtWgt=          12          12           1           1          12          12          12          12          12          12
 AtmWgt=  12.0000000  12.0000000   1.0078250   1.0078250  12.0000000  12.0000000  12.0000000  12.0000000  12.0000000  12.0000000
 NucSpn=           0           0           1           1           0           0           0           0           0           0
 AtZEff=  -0.0000000  -0.0000000  -0.0000000  -0.0000000  -0.0000000  -0.0000000  -0.0000000  -0.0000000  -0.0000000  -0.0000000
 NQMom=    0.0000000   0.0000000   0.0000000   0.0000000   0.0000000   0.0000000   0.0000000   0.0000000   0.0000000   0.0000000
 NMagM=    0.0000000   0.0000000   2.7928460   2.7928460   0.0000000   0.0000000   0.0000000   0.0000000   0.0000000   0.0000000
 AtZNuc=   6.0000000   6.0000000   1.0000000   1.0000000   6.0000000   6.0000000   6.0000000   6.0000000   6.0000000   6.0000000

  Atom        41          42          43          44          45          46          47          48          49          50
 IAtWgt=          12           1          12          12           1          12          12           1           1          12
 AtmWgt=  12.0000000   1.0078250  12.0000000  12.0000000   1.0078250  12.0000000  12.0000000   1.0078250   1.0078250  12.0000000
 NucSpn=           0           1           0           0           1           0           0           1           1           0
 AtZEff=  -0.0000000  -0.0000000  -0.0000000  -0.0000000  -0.0000000  -0.0000000  -0.0000000  -0.0000000  -0.0000000  -0.0000000
 NQMom=    0.0000000   0.0000000   0.0000000   0.0000000   0.0000000   0.0000000   0.0000000   0.0000000   0.0000000   0.0000000
 NMagM=    0.0000000   2.7928460   0.0000000   0.0000000   2.7928460   0.0000000   0.0000000   2.7928460   2.7928460   0.0000000
 AtZNuc=   6.0000000   1.0000000   6.0000000   6.0000000   1.0000000   6.0000000   6.0000000   1.0000000   1.0000000   6.0000000

  Atom        51          52          53          54          55          56          57          58          59          60
 IAtWgt=           1           1           1           1          12          12           1           1           1           1
 AtmWgt=   1.0078250   1.0078250   1.0078250   1.0078250  12.0000000  12.0000000   1.0078250   1.0078250   1.0078250   1.0078250
 NucSpn=           1           1           1           1           0           0           1           1           1           1
 AtZEff=  -0.0000000  -0.0000000  -0.0000000  -0.0000000  -0.0000000  -0.0000000  -0.0000000  -0.0000000  -0.0000000  -0.0000000
 NQMom=    0.0000000   0.0000000   0.0000000   0.0000000   0.0000000   0.0000000   0.0000000   0.0000000   0.0000000   0.0000000
 NMagM=    2.7928460   2.7928460   2.7928460   2.7928460   0.0000000   0.0000000   2.7928460   2.7928460   2.7928460   2.7928460
 AtZNuc=   1.0000000   1.0000000   1.0000000   1.0000000   6.0000000   6.0000000   1.0000000   1.0000000   1.0000000   1.0000000

  Atom        61          62          63          64
 IAtWgt=           1           1           1           1
 AtmWgt=   1.0078250   1.0078250   1.0078250   1.0078250
 NucSpn=           1           1           1           1
 AtZEff=  -0.0000000  -0.0000000  -0.0000000  -0.0000000
 NQMom=    0.0000000   0.0000000   0.0000000   0.0000000
 NMagM=    2.7928460   2.7928460   2.7928460   2.7928460
 AtZNuc=   1.0000000   1.0000000   1.0000000   1.0000000
 Leave Link  101 at Wed Aug 20 10:09:49 2025, MaxMem=  7516192768 cpu:              10.6 elap:               0.6
 (Enter /share/apps/softwares/gaussian/16/g16/l103.exe)

 GradGradGradGradGradGradGradGradGradGradGradGradGradGradGradGradGradGrad
 Berny optimization.
 Initialization pass.
                           ----------------------------
                           !    Initial Parameters    !
                           ! (Angstroms and Degrees)  !
 --------------------------                            --------------------------
 ! Name  Definition              Value          Derivative Info.                !
 --------------------------------------------------------------------------------
 ! R1    R(1,2)                  1.4031         calculate D2E/DX2 analytically  !
 ! R2    R(1,6)                  1.4031         calculate D2E/DX2 analytically  !
 ! R3    R(1,7)                  1.4804         calculate D2E/DX2 analytically  !
 ! R4    R(2,3)                  1.3911         calculate D2E/DX2 analytically  !
 ! R5    R(2,13)                 1.0853         calculate D2E/DX2 analytically  !
 ! R6    R(3,4)                  1.4016         calculate D2E/DX2 analytically  !
 ! R7    R(3,14)                 1.0853         calculate D2E/DX2 analytically  !
 ! R8    R(4,5)                  1.4016         calculate D2E/DX2 analytically  !
 ! R9    R(4,55)                 1.4895         calculate D2E/DX2 analytically  !
 ! R10   R(5,6)                  1.3911         calculate D2E/DX2 analytically  !
 ! R11   R(5,15)                 1.0853         calculate D2E/DX2 analytically  !
 ! R12   R(6,16)                 1.0853         calculate D2E/DX2 analytically  !
 ! R13   R(7,8)                  1.4018         calculate D2E/DX2 analytically  !
 ! R14   R(7,12)                 1.4018         calculate D2E/DX2 analytically  !
 ! R15   R(8,9)                  1.3881         calculate D2E/DX2 analytically  !
 ! R16   R(8,17)                 1.0828         calculate D2E/DX2 analytically  !
 ! R17   R(9,10)                 1.4013         calculate D2E/DX2 analytically  !
 ! R18   R(9,62)                 1.07           calculate D2E/DX2 analytically  !
 ! R19   R(10,11)                1.4013         calculate D2E/DX2 analytically  !
 ! R20   R(10,19)                1.4736         calculate D2E/DX2 analytically  !
 ! R21   R(11,12)                1.3881         calculate D2E/DX2 analytically  !
 ! R22   R(11,61)                1.07           calculate D2E/DX2 analytically  !
 ! R23   R(12,18)                1.0828         calculate D2E/DX2 analytically  !
 ! R24   R(19,20)                1.4376         calculate D2E/DX2 analytically  !
 ! R25   R(19,27)                1.4376         calculate D2E/DX2 analytically  !
 ! R26   R(20,21)                1.4332         calculate D2E/DX2 analytically  !
 ! R27   R(20,22)                1.4038         calculate D2E/DX2 analytically  !
 ! R28   R(21,23)                1.3835         calculate D2E/DX2 analytically  !
 ! R29   R(21,29)                1.4628         calculate D2E/DX2 analytically  !
 ! R30   R(22,24)                1.394          calculate D2E/DX2 analytically  !
 ! R31   R(22,63)                1.07           calculate D2E/DX2 analytically  !
 ! R32   R(23,25)                1.4            calculate D2E/DX2 analytically  !
 ! R33   R(23,26)                1.0836         calculate D2E/DX2 analytically  !
 ! R34   R(24,25)                1.3972         calculate D2E/DX2 analytically  !
 ! R35   R(24,58)                1.0821         calculate D2E/DX2 analytically  !
 ! R36   R(25,64)                1.07           calculate D2E/DX2 analytically  !
 ! R37   R(27,28)                1.4038         calculate D2E/DX2 analytically  !
 ! R38   R(27,29)                1.4332         calculate D2E/DX2 analytically  !
 ! R39   R(28,30)                1.394          calculate D2E/DX2 analytically  !
 ! R40   R(28,60)                1.07           calculate D2E/DX2 analytically  !
 ! R41   R(29,31)                1.3835         calculate D2E/DX2 analytically  !
 ! R42   R(30,32)                1.3972         calculate D2E/DX2 analytically  !
 ! R43   R(30,33)                1.0821         calculate D2E/DX2 analytically  !
 ! R44   R(31,32)                1.4            calculate D2E/DX2 analytically  !
 ! R45   R(31,34)                1.0836         calculate D2E/DX2 analytically  !
 ! R46   R(32,59)                1.07           calculate D2E/DX2 analytically  !
 ! R47   R(35,37)                1.4311         calculate D2E/DX2 analytically  !
 ! R48   R(35,38)                1.4441         calculate D2E/DX2 analytically  !
 ! R49   R(35,55)                1.4128         calculate D2E/DX2 analytically  !
 ! R50   R(36,39)                1.4441         calculate D2E/DX2 analytically  !
 ! R51   R(36,40)                1.4311         calculate D2E/DX2 analytically  !
 ! R52   R(36,55)                1.4128         calculate D2E/DX2 analytically  !
 ! R53   R(37,41)                1.3696         calculate D2E/DX2 analytically  !
 ! R54   R(37,42)                1.0834         calculate D2E/DX2 analytically  !
 ! R55   R(38,43)                1.4287         calculate D2E/DX2 analytically  !
 ! R56   R(38,56)                1.3969         calculate D2E/DX2 analytically  !
 ! R57   R(39,44)                1.4287         calculate D2E/DX2 analytically  !
 ! R58   R(39,56)                1.3969         calculate D2E/DX2 analytically  !
 ! R59   R(40,45)                1.0834         calculate D2E/DX2 analytically  !
 ! R60   R(40,46)                1.3696         calculate D2E/DX2 analytically  !
 ! R61   R(41,47)                1.4236         calculate D2E/DX2 analytically  !
 ! R62   R(41,48)                1.0857         calculate D2E/DX2 analytically  !
 ! R63   R(43,47)                1.368          calculate D2E/DX2 analytically  !
 ! R64   R(43,49)                1.0864         calculate D2E/DX2 analytically  !
 ! R65   R(44,50)                1.368          calculate D2E/DX2 analytically  !
 ! R66   R(44,51)                1.0864         calculate D2E/DX2 analytically  !
 ! R67   R(46,50)                1.4236         calculate D2E/DX2 analytically  !
 ! R68   R(46,52)                1.0857         calculate D2E/DX2 analytically  !
 ! R69   R(47,53)                1.0855         calculate D2E/DX2 analytically  !
 ! R70   R(50,54)                1.0855         calculate D2E/DX2 analytically  !
 ! R71   R(56,57)                1.0871         calculate D2E/DX2 analytically  !
 ! A1    A(2,1,6)              118.2655         calculate D2E/DX2 analytically  !
 ! A2    A(2,1,7)              120.8672         calculate D2E/DX2 analytically  !
 ! A3    A(6,1,7)              120.8672         calculate D2E/DX2 analytically  !
 ! A4    A(1,2,3)              120.8221         calculate D2E/DX2 analytically  !
 ! A5    A(1,2,13)             119.5935         calculate D2E/DX2 analytically  !
 ! A6    A(3,2,13)             119.5674         calculate D2E/DX2 analytically  !
 ! A7    A(2,3,4)              120.8996         calculate D2E/DX2 analytically  !
 ! A8    A(2,3,14)             119.9703         calculate D2E/DX2 analytically  !
 ! A9    A(4,3,14)             119.1287         calculate D2E/DX2 analytically  !
 ! A10   A(3,4,5)              118.2909         calculate D2E/DX2 analytically  !
 ! A11   A(3,4,55)             120.8545         calculate D2E/DX2 analytically  !
 ! A12   A(5,4,55)             120.8545         calculate D2E/DX2 analytically  !
 ! A13   A(4,5,6)              120.8996         calculate D2E/DX2 analytically  !
 ! A14   A(4,5,15)             119.1287         calculate D2E/DX2 analytically  !
 ! A15   A(6,5,15)             119.9704         calculate D2E/DX2 analytically  !
 ! A16   A(1,6,5)              120.8222         calculate D2E/DX2 analytically  !
 ! A17   A(1,6,16)             119.5934         calculate D2E/DX2 analytically  !
 ! A18   A(5,6,16)             119.5673         calculate D2E/DX2 analytically  !
 ! A19   A(1,7,8)              120.6308         calculate D2E/DX2 analytically  !
 ! A20   A(1,7,12)             120.6308         calculate D2E/DX2 analytically  !
 ! A21   A(8,7,12)             118.7383         calculate D2E/DX2 analytically  !
 ! A22   A(7,8,9)              120.0118         calculate D2E/DX2 analytically  !
 ! A23   A(7,8,17)             120.4787         calculate D2E/DX2 analytically  !
 ! A24   A(9,8,17)             119.4888         calculate D2E/DX2 analytically  !
 ! A25   A(8,9,10)             122.3992         calculate D2E/DX2 analytically  !
 ! A26   A(8,9,62)             118.7694         calculate D2E/DX2 analytically  !
 ! A27   A(10,9,62)            118.8289         calculate D2E/DX2 analytically  !
 ! A28   A(9,10,11)            116.439          calculate D2E/DX2 analytically  !
 ! A29   A(9,10,19)            121.7806         calculate D2E/DX2 analytically  !
 ! A30   A(11,10,19)           121.7805         calculate D2E/DX2 analytically  !
 ! A31   A(10,11,12)           122.3993         calculate D2E/DX2 analytically  !
 ! A32   A(10,11,61)           118.8288         calculate D2E/DX2 analytically  !
 ! A33   A(12,11,61)           118.7695         calculate D2E/DX2 analytically  !
 ! A34   A(7,12,11)            120.0118         calculate D2E/DX2 analytically  !
 ! A35   A(7,12,18)            120.4787         calculate D2E/DX2 analytically  !
 ! A36   A(11,12,18)           119.4888         calculate D2E/DX2 analytically  !
 ! A37   A(10,19,20)           126.1965         calculate D2E/DX2 analytically  !
 ! A38   A(10,19,27)           126.1964         calculate D2E/DX2 analytically  !
 ! A39   A(20,19,27)           107.6071         calculate D2E/DX2 analytically  !
 ! A40   A(19,20,21)           108.7894         calculate D2E/DX2 analytically  !
 ! A41   A(19,20,22)           133.0726         calculate D2E/DX2 analytically  !
 ! A42   A(21,20,22)           118.138          calculate D2E/DX2 analytically  !
 ! A43   A(20,21,23)           121.9932         calculate D2E/DX2 analytically  !
 ! A44   A(20,21,29)           107.407          calculate D2E/DX2 analytically  !
 ! A45   A(23,21,29)           130.5998         calculate D2E/DX2 analytically  !
 ! A46   A(20,22,24)           120.4909         calculate D2E/DX2 analytically  !
 ! A47   A(20,22,63)           121.5602         calculate D2E/DX2 analytically  !
 ! A48   A(24,22,63)           117.9489         calculate D2E/DX2 analytically  !
 ! A49   A(21,23,25)           117.7194         calculate D2E/DX2 analytically  !
 ! A50   A(21,23,26)           122.0074         calculate D2E/DX2 analytically  !
 ! A51   A(25,23,26)           120.2732         calculate D2E/DX2 analytically  !
 ! A52   A(22,24,25)           119.4901         calculate D2E/DX2 analytically  !
 ! A53   A(22,24,58)           120.124          calculate D2E/DX2 analytically  !
 ! A54   A(25,24,58)           120.3859         calculate D2E/DX2 analytically  !
 ! A55   A(23,25,24)           122.1684         calculate D2E/DX2 analytically  !
 ! A56   A(23,25,64)           119.0544         calculate D2E/DX2 analytically  !
 ! A57   A(24,25,64)           118.7772         calculate D2E/DX2 analytically  !
 ! A58   A(19,27,28)           133.0726         calculate D2E/DX2 analytically  !
 ! A59   A(19,27,29)           108.7894         calculate D2E/DX2 analytically  !
 ! A60   A(28,27,29)           118.138          calculate D2E/DX2 analytically  !
 ! A61   A(27,28,30)           120.491          calculate D2E/DX2 analytically  !
 ! A62   A(27,28,60)           121.5602         calculate D2E/DX2 analytically  !
 ! A63   A(30,28,60)           117.9488         calculate D2E/DX2 analytically  !
 ! A64   A(21,29,27)           107.407          calculate D2E/DX2 analytically  !
 ! A65   A(21,29,31)           130.5998         calculate D2E/DX2 analytically  !
 ! A66   A(27,29,31)           121.9932         calculate D2E/DX2 analytically  !
 ! A67   A(28,30,32)           119.4901         calculate D2E/DX2 analytically  !
 ! A68   A(28,30,33)           120.124          calculate D2E/DX2 analytically  !
 ! A69   A(32,30,33)           120.3859         calculate D2E/DX2 analytically  !
 ! A70   A(29,31,32)           117.7194         calculate D2E/DX2 analytically  !
 ! A71   A(29,31,34)           122.0074         calculate D2E/DX2 analytically  !
 ! A72   A(32,31,34)           120.2732         calculate D2E/DX2 analytically  !
 ! A73   A(30,32,31)           122.1684         calculate D2E/DX2 analytically  !
 ! A74   A(30,32,59)           118.7772         calculate D2E/DX2 analytically  !
 ! A75   A(31,32,59)           119.0544         calculate D2E/DX2 analytically  !
 ! A76   A(37,35,38)           117.8948         calculate D2E/DX2 analytically  !
 ! A77   A(37,35,55)           122.5824         calculate D2E/DX2 analytically  !
 ! A78   A(38,35,55)           119.5137         calculate D2E/DX2 analytically  !
 ! A79   A(39,36,40)           117.8949         calculate D2E/DX2 analytically  !
 ! A80   A(39,36,55)           119.5137         calculate D2E/DX2 analytically  !
 ! A81   A(40,36,55)           122.5824         calculate D2E/DX2 analytically  !
 ! A82   A(35,37,41)           121.1776         calculate D2E/DX2 analytically  !
 ! A83   A(35,37,42)           118.7806         calculate D2E/DX2 analytically  !
 ! A84   A(41,37,42)           120.0408         calculate D2E/DX2 analytically  !
 ! A85   A(35,38,43)           119.0792         calculate D2E/DX2 analytically  !
 ! A86   A(35,38,56)           119.4566         calculate D2E/DX2 analytically  !
 ! A87   A(43,38,56)           121.4629         calculate D2E/DX2 analytically  !
 ! A88   A(36,39,44)           119.0792         calculate D2E/DX2 analytically  !
 ! A89   A(36,39,56)           119.4566         calculate D2E/DX2 analytically  !
 ! A90   A(44,39,56)           121.4629         calculate D2E/DX2 analytically  !
 ! A91   A(36,40,45)           118.7807         calculate D2E/DX2 analytically  !
 ! A92   A(36,40,46)           121.1775         calculate D2E/DX2 analytically  !
 ! A93   A(45,40,46)           120.0409         calculate D2E/DX2 analytically  !
 ! A94   A(37,41,47)           120.7366         calculate D2E/DX2 analytically  !
 ! A95   A(37,41,48)           119.8233         calculate D2E/DX2 analytically  !
 ! A96   A(47,41,48)           119.4392         calculate D2E/DX2 analytically  !
 ! A97   A(38,43,47)           121.068          calculate D2E/DX2 analytically  !
 ! A98   A(38,43,49)           118.2115         calculate D2E/DX2 analytically  !
 ! A99   A(47,43,49)           120.7202         calculate D2E/DX2 analytically  !
 ! A100  A(39,44,50)           121.068          calculate D2E/DX2 analytically  !
 ! A101  A(39,44,51)           118.2115         calculate D2E/DX2 analytically  !
 ! A102  A(50,44,51)           120.7202         calculate D2E/DX2 analytically  !
 ! A103  A(40,46,50)           120.7367         calculate D2E/DX2 analytically  !
 ! A104  A(40,46,52)           119.8232         calculate D2E/DX2 analytically  !
 ! A105  A(50,46,52)           119.4393         calculate D2E/DX2 analytically  !
 ! A106  A(41,47,43)           120.0297         calculate D2E/DX2 analytically  !
 ! A107  A(41,47,53)           119.6405         calculate D2E/DX2 analytically  !
 ! A108  A(43,47,53)           120.3283         calculate D2E/DX2 analytically  !
 ! A109  A(44,50,46)           120.0298         calculate D2E/DX2 analytically  !
 ! A110  A(44,50,54)           120.3283         calculate D2E/DX2 analytically  !
 ! A111  A(46,50,54)           119.6405         calculate D2E/DX2 analytically  !
 ! A112  A(4,55,35)            119.7822         calculate D2E/DX2 analytically  !
 ! A113  A(4,55,36)            119.7822         calculate D2E/DX2 analytically  !
 ! A114  A(35,55,36)           120.4356         calculate D2E/DX2 analytically  !
 ! A115  A(38,56,39)           121.6191         calculate D2E/DX2 analytically  !
 ! A116  A(38,56,57)           119.1905         calculate D2E/DX2 analytically  !
 ! A117  A(39,56,57)           119.1905         calculate D2E/DX2 analytically  !
 ! D1    D(6,1,2,3)             -0.011          calculate D2E/DX2 analytically  !
 ! D2    D(6,1,2,13)           178.4798         calculate D2E/DX2 analytically  !
 ! D3    D(7,1,2,3)            179.9889         calculate D2E/DX2 analytically  !
 ! D4    D(7,1,2,13)            -1.5203         calculate D2E/DX2 analytically  !
 ! D5    D(2,1,6,5)             -0.011          calculate D2E/DX2 analytically  !
 ! D6    D(2,1,6,16)           178.4797         calculate D2E/DX2 analytically  !
 ! D7    D(7,1,6,5)            179.989          calculate D2E/DX2 analytically  !
 ! D8    D(7,1,6,16)            -1.5202         calculate D2E/DX2 analytically  !
 ! D9    D(2,1,7,8)            -36.8784         calculate D2E/DX2 analytically  !
 ! D10   D(2,1,7,12)           143.1217         calculate D2E/DX2 analytically  !
 ! D11   D(6,1,7,8)            143.1216         calculate D2E/DX2 analytically  !
 ! D12   D(6,1,7,12)           -36.8784         calculate D2E/DX2 analytically  !
 ! D13   D(1,2,3,4)              0.0223         calculate D2E/DX2 analytically  !
 ! D14   D(1,2,3,14)           179.5993         calculate D2E/DX2 analytically  !
 ! D15   D(13,2,3,4)          -178.4689         calculate D2E/DX2 analytically  !
 ! D16   D(13,2,3,14)            1.1081         calculate D2E/DX2 analytically  !
 ! D17   D(2,3,4,5)             -0.0111         calculate D2E/DX2 analytically  !
 ! D18   D(2,3,4,55)           179.989          calculate D2E/DX2 analytically  !
 ! D19   D(14,3,4,5)          -179.5916         calculate D2E/DX2 analytically  !
 ! D20   D(14,3,4,55)            0.4085         calculate D2E/DX2 analytically  !
 ! D21   D(3,4,5,6)             -0.011          calculate D2E/DX2 analytically  !
 ! D22   D(3,4,5,15)          -179.5915         calculate D2E/DX2 analytically  !
 ! D23   D(55,4,5,6)           179.9889         calculate D2E/DX2 analytically  !
 ! D24   D(55,4,5,15)            0.4084         calculate D2E/DX2 analytically  !
 ! D25   D(3,4,55,35)          109.4948         calculate D2E/DX2 analytically  !
 ! D26   D(3,4,55,36)          -70.5052         calculate D2E/DX2 analytically  !
 ! D27   D(5,4,55,35)          -70.5051         calculate D2E/DX2 analytically  !
 ! D28   D(5,4,55,36)          109.4949         calculate D2E/DX2 analytically  !
 ! D29   D(4,5,6,1)              0.0222         calculate D2E/DX2 analytically  !
 ! D30   D(4,5,6,16)          -178.4689         calculate D2E/DX2 analytically  !
 ! D31   D(15,5,6,1)           179.5993         calculate D2E/DX2 analytically  !
 ! D32   D(15,5,6,16)            1.1082         calculate D2E/DX2 analytically  !
 ! D33   D(1,7,8,9)            179.8872         calculate D2E/DX2 analytically  !
 ! D34   D(1,7,8,17)            -1.7768         calculate D2E/DX2 analytically  !
 ! D35   D(12,7,8,9)            -0.1129         calculate D2E/DX2 analytically  !
 ! D36   D(12,7,8,17)          178.2232         calculate D2E/DX2 analytically  !
 ! D37   D(1,7,12,11)          179.8872         calculate D2E/DX2 analytically  !
 ! D38   D(1,7,12,18)           -1.7767         calculate D2E/DX2 analytically  !
 ! D39   D(8,7,12,11)           -0.1127         calculate D2E/DX2 analytically  !
 ! D40   D(8,7,12,18)          178.2234         calculate D2E/DX2 analytically  !
 ! D41   D(7,8,9,10)             0.233          calculate D2E/DX2 analytically  !
 ! D42   D(7,8,9,62)           179.6491         calculate D2E/DX2 analytically  !
 ! D43   D(17,8,9,10)         -178.1196         calculate D2E/DX2 analytically  !
 ! D44   D(17,8,9,62)            1.2965         calculate D2E/DX2 analytically  !
 ! D45   D(8,9,10,11)           -0.1171         calculate D2E/DX2 analytically  !
 ! D46   D(8,9,10,19)          179.8829         calculate D2E/DX2 analytically  !
 ! D47   D(62,9,10,11)        -179.5328         calculate D2E/DX2 analytically  !
 ! D48   D(62,9,10,19)           0.4671         calculate D2E/DX2 analytically  !
 ! D49   D(9,10,11,12)          -0.1172         calculate D2E/DX2 analytically  !
 ! D50   D(9,10,11,61)        -179.5333         calculate D2E/DX2 analytically  !
 ! D51   D(19,10,11,12)        179.8828         calculate D2E/DX2 analytically  !
 ! D52   D(19,10,11,61)          0.4668         calculate D2E/DX2 analytically  !
 ! D53   D(9,10,19,20)          90.0494         calculate D2E/DX2 analytically  !
 ! D54   D(9,10,19,27)         -89.9509         calculate D2E/DX2 analytically  !
 ! D55   D(11,10,19,20)        -89.9506         calculate D2E/DX2 analytically  !
 ! D56   D(11,10,19,27)         90.049          calculate D2E/DX2 analytically  !
 ! D57   D(10,11,12,7)           0.233          calculate D2E/DX2 analytically  !
 ! D58   D(10,11,12,18)       -178.1196         calculate D2E/DX2 analytically  !
 ! D59   D(61,11,12,7)         179.6494         calculate D2E/DX2 analytically  !
 ! D60   D(61,11,12,18)          1.2968         calculate D2E/DX2 analytically  !
 ! D61   D(10,19,20,21)       -179.9985         calculate D2E/DX2 analytically  !
 ! D62   D(10,19,20,22)          0.0145         calculate D2E/DX2 analytically  !
 ! D63   D(27,19,20,21)          0.0018         calculate D2E/DX2 analytically  !
 ! D64   D(27,19,20,22)       -179.9852         calculate D2E/DX2 analytically  !
 ! D65   D(10,19,27,28)          0.0146         calculate D2E/DX2 analytically  !
 ! D66   D(10,19,27,29)       -179.9982         calculate D2E/DX2 analytically  !
 ! D67   D(20,19,27,28)       -179.9857         calculate D2E/DX2 analytically  !
 ! D68   D(20,19,27,29)          0.0015         calculate D2E/DX2 analytically  !
 ! D69   D(19,20,21,23)        179.9973         calculate D2E/DX2 analytically  !
 ! D70   D(19,20,21,29)         -0.0044         calculate D2E/DX2 analytically  !
 ! D71   D(22,20,21,23)         -0.0134         calculate D2E/DX2 analytically  !
 ! D72   D(22,20,21,29)        179.9849         calculate D2E/DX2 analytically  !
 ! D73   D(19,20,22,24)       -179.9989         calculate D2E/DX2 analytically  !
 ! D74   D(19,20,22,63)          0.0225         calculate D2E/DX2 analytically  !
 ! D75   D(21,20,22,24)          0.015          calculate D2E/DX2 analytically  !
 ! D76   D(21,20,22,63)       -179.9636         calculate D2E/DX2 analytically  !
 ! D77   D(20,21,23,25)          0.0027         calculate D2E/DX2 analytically  !
 ! D78   D(20,21,23,26)       -179.9979         calculate D2E/DX2 analytically  !
 ! D79   D(29,21,23,25)       -179.9952         calculate D2E/DX2 analytically  !
 ! D80   D(29,21,23,26)          0.0042         calculate D2E/DX2 analytically  !
 ! D81   D(20,21,29,27)          0.0053         calculate D2E/DX2 analytically  !
 ! D82   D(20,21,29,31)       -179.9963         calculate D2E/DX2 analytically  !
 ! D83   D(23,21,29,27)       -179.9966         calculate D2E/DX2 analytically  !
 ! D84   D(23,21,29,31)          0.0018         calculate D2E/DX2 analytically  !
 ! D85   D(20,22,24,25)         -0.0063         calculate D2E/DX2 analytically  !
 ! D86   D(20,22,24,58)       -179.9965         calculate D2E/DX2 analytically  !
 ! D87   D(63,22,24,25)        179.9731         calculate D2E/DX2 analytically  !
 ! D88   D(63,22,24,58)         -0.0171         calculate D2E/DX2 analytically  !
 ! D89   D(21,23,25,24)          0.0067         calculate D2E/DX2 analytically  !
 ! D90   D(21,23,25,64)       -179.9972         calculate D2E/DX2 analytically  !
 ! D91   D(26,23,25,24)       -179.9927         calculate D2E/DX2 analytically  !
 ! D92   D(26,23,25,64)          0.0034         calculate D2E/DX2 analytically  !
 ! D93   D(22,24,25,23)         -0.005          calculate D2E/DX2 analytically  !
 ! D94   D(22,24,25,64)        179.9989         calculate D2E/DX2 analytically  !
 ! D95   D(58,24,25,23)        179.9852         calculate D2E/DX2 analytically  !
 ! D96   D(58,24,25,64)         -0.0109         calculate D2E/DX2 analytically  !
 ! D97   D(19,27,28,30)       -179.9988         calculate D2E/DX2 analytically  !
 ! D98   D(19,27,28,60)          0.0224         calculate D2E/DX2 analytically  !
 ! D99   D(29,27,28,30)          0.0149         calculate D2E/DX2 analytically  !
 ! D100  D(29,27,28,60)       -179.9639         calculate D2E/DX2 analytically  !
 ! D101  D(19,27,29,21)         -0.0042         calculate D2E/DX2 analytically  !
 ! D102  D(19,27,29,31)        179.9972         calculate D2E/DX2 analytically  !
 ! D103  D(28,27,29,21)        179.9852         calculate D2E/DX2 analytically  !
 ! D104  D(28,27,29,31)         -0.0133         calculate D2E/DX2 analytically  !
 ! D105  D(27,28,30,32)         -0.0062         calculate D2E/DX2 analytically  !
 ! D106  D(27,28,30,33)       -179.9966         calculate D2E/DX2 analytically  !
 ! D107  D(60,28,30,32)        179.9733         calculate D2E/DX2 analytically  !
 ! D108  D(60,28,30,33)         -0.017          calculate D2E/DX2 analytically  !
 ! D109  D(21,29,31,32)       -179.9955         calculate D2E/DX2 analytically  !
 ! D110  D(21,29,31,34)          0.004          calculate D2E/DX2 analytically  !
 ! D111  D(27,29,31,32)          0.0027         calculate D2E/DX2 analytically  !
 ! D112  D(27,29,31,34)       -179.9978         calculate D2E/DX2 analytically  !
 ! D113  D(28,30,32,31)         -0.005          calculate D2E/DX2 analytically  !
 ! D114  D(28,30,32,59)        179.9988         calculate D2E/DX2 analytically  !
 ! D115  D(33,30,32,31)        179.9854         calculate D2E/DX2 analytically  !
 ! D116  D(33,30,32,59)         -0.0109         calculate D2E/DX2 analytically  !
 ! D117  D(29,31,32,30)          0.0066         calculate D2E/DX2 analytically  !
 ! D118  D(29,31,32,59)       -179.9972         calculate D2E/DX2 analytically  !
 ! D119  D(34,31,32,30)       -179.9928         calculate D2E/DX2 analytically  !
 ! D120  D(34,31,32,59)          0.0034         calculate D2E/DX2 analytically  !
 ! D121  D(38,35,37,41)         -1.1719         calculate D2E/DX2 analytically  !
 ! D122  D(38,35,37,42)        178.4822         calculate D2E/DX2 analytically  !
 ! D123  D(55,35,37,41)        179.9322         calculate D2E/DX2 analytically  !
 ! D124  D(55,35,37,42)         -0.4137         calculate D2E/DX2 analytically  !
 ! D125  D(37,35,38,43)          1.3086         calculate D2E/DX2 analytically  !
 ! D126  D(37,35,38,56)       -178.2921         calculate D2E/DX2 analytically  !
 ! D127  D(55,35,38,43)       -179.7605         calculate D2E/DX2 analytically  !
 ! D128  D(55,35,38,56)          0.6389         calculate D2E/DX2 analytically  !
 ! D129  D(37,35,55,4)          -1.438          calculate D2E/DX2 analytically  !
 ! D130  D(37,35,55,36)        178.562          calculate D2E/DX2 analytically  !
 ! D131  D(38,35,55,4)         179.6833         calculate D2E/DX2 analytically  !
 ! D132  D(38,35,55,36)         -0.3167         calculate D2E/DX2 analytically  !
 ! D133  D(40,36,39,44)          1.3085         calculate D2E/DX2 analytically  !
 ! D134  D(40,36,39,56)       -178.2921         calculate D2E/DX2 analytically  !
 ! D135  D(55,36,39,44)       -179.7605         calculate D2E/DX2 analytically  !
 ! D136  D(55,36,39,56)          0.6389         calculate D2E/DX2 analytically  !
 ! D137  D(39,36,40,45)        178.4822         calculate D2E/DX2 analytically  !
 ! D138  D(39,36,40,46)         -1.1718         calculate D2E/DX2 analytically  !
 ! D139  D(55,36,40,45)         -0.4138         calculate D2E/DX2 analytically  !
 ! D140  D(55,36,40,46)        179.9322         calculate D2E/DX2 analytically  !
 ! D141  D(39,36,55,4)         179.6833         calculate D2E/DX2 analytically  !
 ! D142  D(39,36,55,35)         -0.3167         calculate D2E/DX2 analytically  !
 ! D143  D(40,36,55,4)          -1.4379         calculate D2E/DX2 analytically  !
 ! D144  D(40,36,55,35)        178.5621         calculate D2E/DX2 analytically  !
 ! D145  D(35,37,41,47)          0.2482         calculate D2E/DX2 analytically  !
 ! D146  D(35,37,41,48)        179.9163         calculate D2E/DX2 analytically  !
 ! D147  D(42,37,41,47)       -179.4017         calculate D2E/DX2 analytically  !
 ! D148  D(42,37,41,48)          0.2665         calculate D2E/DX2 analytically  !
 ! D149  D(35,38,43,47)         -0.5505         calculate D2E/DX2 analytically  !
 ! D150  D(35,38,43,49)        179.6369         calculate D2E/DX2 analytically  !
 ! D151  D(56,38,43,47)        179.0418         calculate D2E/DX2 analytically  !
 ! D152  D(56,38,43,49)         -0.7707         calculate D2E/DX2 analytically  !
 ! D153  D(35,38,56,39)         -0.3182         calculate D2E/DX2 analytically  !
 ! D154  D(35,38,56,57)        179.6818         calculate D2E/DX2 analytically  !
 ! D155  D(43,38,56,39)       -179.9091         calculate D2E/DX2 analytically  !
 ! D156  D(43,38,56,57)          0.0909         calculate D2E/DX2 analytically  !
 ! D157  D(36,39,44,50)         -0.5504         calculate D2E/DX2 analytically  !
 ! D158  D(36,39,44,51)        179.6369         calculate D2E/DX2 analytically  !
 ! D159  D(56,39,44,50)        179.0419         calculate D2E/DX2 analytically  !
 ! D160  D(56,39,44,51)         -0.7708         calculate D2E/DX2 analytically  !
 ! D161  D(36,39,56,38)         -0.3183         calculate D2E/DX2 analytically  !
 ! D162  D(36,39,56,57)        179.6817         calculate D2E/DX2 analytically  !
 ! D163  D(44,39,56,38)       -179.909          calculate D2E/DX2 analytically  !
 ! D164  D(44,39,56,57)          0.091          calculate D2E/DX2 analytically  !
 ! D165  D(36,40,46,50)          0.2481         calculate D2E/DX2 analytically  !
 ! D166  D(36,40,46,52)        179.9162         calculate D2E/DX2 analytically  !
 ! D167  D(45,40,46,50)       -179.4016         calculate D2E/DX2 analytically  !
 ! D168  D(45,40,46,52)          0.2666         calculate D2E/DX2 analytically  !
 ! D169  D(37,41,47,43)          0.5622         calculate D2E/DX2 analytically  !
 ! D170  D(37,41,47,53)       -179.8728         calculate D2E/DX2 analytically  !
 ! D171  D(48,41,47,43)       -179.1072         calculate D2E/DX2 analytically  !
 ! D172  D(48,41,47,53)          0.4578         calculate D2E/DX2 analytically  !
 ! D173  D(38,43,47,41)         -0.396          calculate D2E/DX2 analytically  !
 ! D174  D(38,43,47,53)       -179.958          calculate D2E/DX2 analytically  !
 ! D175  D(49,43,47,41)        179.4118         calculate D2E/DX2 analytically  !
 ! D176  D(49,43,47,53)         -0.1501         calculate D2E/DX2 analytically  !
 ! D177  D(39,44,50,46)         -0.3961         calculate D2E/DX2 analytically  !
 ! D178  D(39,44,50,54)       -179.958          calculate D2E/DX2 analytically  !
 ! D179  D(51,44,50,46)        179.4118         calculate D2E/DX2 analytically  !
 ! D180  D(51,44,50,54)         -0.15           calculate D2E/DX2 analytically  !
 ! D181  D(40,46,50,44)          0.5623         calculate D2E/DX2 analytically  !
 ! D182  D(40,46,50,54)       -179.8728         calculate D2E/DX2 analytically  !
 ! D183  D(52,46,50,44)       -179.1071         calculate D2E/DX2 analytically  !
 ! D184  D(52,46,50,54)          0.4578         calculate D2E/DX2 analytically  !
 --------------------------------------------------------------------------------
 Trust Radius=3.00D-01 FncErr=1.00D-07 GrdErr=1.00D-06 EigMax=2.50D+02 EigMin=1.00D-04
 Number of steps in this run=    382 maximum allowed number of steps=    384.
 Step   0 in ReCalcFC= 5 IGetFC= 4 compute analytic Hessian.
 GradGradGradGradGradGradGradGradGradGradGradGradGradGradGradGradGradGrad

 Leave Link  103 at Wed Aug 20 10:09:50 2025, MaxMem=  7516192768 cpu:               1.1 elap:               0.1
 (Enter /share/apps/softwares/gaussian/16/g16/l202.exe)
 Stoichiometry    C39H25(2)
 Framework group  C1[X(C39H25)]
 Deg. of freedom   186
 Full point group                 C1      NOp   1
 Largest Abelian subgroup         C1      NOp   1
 Largest concise Abelian subgroup C1      NOp   1
                         Standard orientation:                         
 ---------------------------------------------------------------------
 Center     Atomic      Atomic             Coordinates (Angstroms)
 Number     Number       Type             X           Y           Z
 ---------------------------------------------------------------------
      1          6           0        0.678039    0.000001    0.000002
      2          6           0        1.397891    0.557230    1.067686
      3          6           0        2.789038    0.556519    1.066821
      4          6           0        3.507874    0.000001   -0.000000
      5          6           0        2.789037   -0.556517   -1.066819
      6          6           0        1.397890   -0.557227   -1.067682
      7          6           0       -0.802346    0.000000    0.000004
      8          6           0       -1.516559   -0.195302    1.190276
      9          6           0       -2.904624   -0.190539    1.175863
     10          6           0       -3.642635   -0.000001    0.000007
     11          6           0       -2.904626    0.190536   -1.175849
     12          6           0       -1.516561    0.195300   -1.190266
     13          1           0        0.863087    1.016237    1.893057
     14          1           0        3.331933    0.997137    1.896854
     15          1           0        3.331931   -0.997135   -1.896852
     16          1           0        0.863084   -1.016235   -1.893053
     17          1           0       -0.993812   -0.377316    2.120878
     18          1           0       -0.993817    0.377314   -2.120870
     19          6           0       -5.116190   -0.000001    0.000007
     20          6           0       -5.965185    1.145376    0.184592
     21          6           0       -7.332757    0.722075    0.116410
     22          6           0       -5.703805    2.507087    0.403779
     23          6           0       -8.383188    1.610917    0.259717
     24          6           0       -6.752302    3.413963    0.550030
     25          6           0       -8.071115    2.958272    0.476823
     26          1           0       -9.417239    1.291122    0.208241
     27          6           0       -5.965183   -1.145376   -0.184586
     28          6           0       -5.703801   -2.507085   -0.403779
     29          6           0       -7.332756   -0.722077   -0.116410
     30          6           0       -6.752295   -3.413962   -0.550038
     31          6           0       -8.383186   -1.610918   -0.259727
     32          6           0       -8.071110   -2.958273   -0.476836
     33          1           0       -6.544003   -4.462356   -0.718739
     34          1           0       -9.417237   -1.291126   -0.208256
     35          6           0        5.699135   -1.214137    0.171812
     36          6           0        5.699136    1.214138   -0.171814
     37          6           0        5.035675   -2.465005    0.379385
     38          6           0        7.143246   -1.208420    0.163987
     39          6           0        7.143246    1.208419   -0.163990
     40          6           0        5.035676    2.465006   -0.379385
     41          6           0        5.744839   -3.625420    0.541343
     42          1           0        3.952942   -2.481920    0.412800
     43          6           0        7.843429   -2.442190    0.333366
     44          6           0        7.843431    2.442189   -0.333371
     45          1           0        3.952944    2.481922   -0.412799
     46          6           0        5.744842    3.625420   -0.541345
     47          6           0        7.168120   -3.618326    0.512734
     48          1           0        5.218960   -4.562058    0.698837
     49          1           0        8.929556   -2.422447    0.319192
     50          6           0        7.168122    3.618324   -0.512737
     51          1           0        8.929558    2.422445   -0.319199
     52          1           0        5.218963    4.562058   -0.698838
     53          1           0        7.712304   -4.548802    0.640955
     54          1           0        7.712307    4.548800   -0.640959
     55          6           0        4.997371    0.000000   -0.000001
     56          6           0        7.824533   -0.000001   -0.000002
     57          1           0        8.911597   -0.000001   -0.000003
     58          1           0       -6.544012    4.462358    0.718724
     59          1           0       -8.867089   -3.664213   -0.590705
     60          1           0       -4.703732   -2.882811   -0.463704
     61          1           0       -3.429716    0.347195   -2.094891
     62          1           0       -3.429710   -0.347205    2.094906
     63          1           0       -4.703737    2.882816    0.463703
     64          1           0       -8.867096    3.664212    0.590685
 ---------------------------------------------------------------------
 Rotational constants (GHZ):           0.2348923           0.0302481           0.0273753
 Leave Link  202 at Wed Aug 20 10:09:51 2025, MaxMem=  7516192768 cpu:               0.3 elap:               0.1
 (Enter /share/apps/softwares/gaussian/16/g16/l301.exe)
 Standard basis: 6-31G(d,p) (6D, 7F)
 Ernie: Thresh=  0.10000D-02 Tol=  0.10000D-05 Strict=F.
 There are   710 symmetry adapted cartesian basis functions of A   symmetry.
 There are   710 symmetry adapted basis functions of A   symmetry.
   710 basis functions,  1267 primitive gaussians,   710 cartesian basis functions
   130 alpha electrons      129 beta electrons
       nuclear repulsion energy      3510.9543410407 Hartrees.
 IExCor=  402 DFT=T Ex+Corr=B3LYP ExCW=0 ScaHFX=  0.200000
 ScaDFX=  0.800000  0.720000  1.000000  0.810000 ScalE2=  1.000000  1.000000
 IRadAn=      5 IRanWt=     -1 IRanGd=            0 ICorTp=0 IEmpDi=141
 NAtoms=   64 NActive=   64 NUniq=   64 SFac= 1.00D+00 NAtFMM=   60 NAOKFM=T Big=T
 Integral buffers will be    131072 words long.
 Raffenetti 2 integral format.
 Two-electron integral symmetry is turned on.
 R6Disp:  Grimme-D3(BJ) Dispersion energy=       -0.1684607500 Hartrees.
 Nuclear repulsion after empirical dispersion term =     3510.7858802907 Hartrees.
 Leave Link  301 at Wed Aug 20 10:09:52 2025, MaxMem=  7516192768 cpu:               2.3 elap:               0.2
 (Enter /share/apps/softwares/gaussian/16/g16/l302.exe)
 NPDir=0 NMtPBC=     1 NCelOv=     1 NCel=       1 NClECP=     1 NCelD=      1
         NCelK=      1 NCelE2=     1 NClLst=     1 CellRange=     0.0.
 One-electron integrals computed using PRISM.
 One-electron integral symmetry used in STVInt
 NBasis=   710 RedAO= T EigKep=  1.81D-04  NBF=   710
 NBsUse=   710 1.00D-06 EigRej= -1.00D+00 NBFU=   710
 Precomputing XC quadrature grid using
 IXCGrd= 4 IRadAn=           5 IRanWt=          -1 IRanGd=           0 AccXCQ= 0.00D+00.
 Generated NRdTot=       0 NPtTot=           0 NUsed=           0 NTot=          32
 NSgBfM=   663   663   663   663   663 MxSgAt=    64 MxSgA2=    64.
 Leave Link  302 at Wed Aug 20 10:09:54 2025, MaxMem=  7516192768 cpu:              27.4 elap:               1.4
 (Enter /share/apps/softwares/gaussian/16/g16/l303.exe)
 DipDrv:  MaxL=1.
 Leave Link  303 at Wed Aug 20 10:09:55 2025, MaxMem=  7516192768 cpu:               2.9 elap:               0.2
 (Enter /share/apps/softwares/gaussian/16/g16/l401.exe)
 ExpMin= 1.61D-01 ExpMax= 3.05D+03 ExpMxC= 4.57D+02 IAcc=3 IRadAn=         5 AccDes= 0.00D+00
 Harris functional with IExCor=  402 and IRadAn=       5 diagonalized for initial guess.
 HarFok:  IExCor=  402 AccDes= 0.00D+00 IRadAn=         5 IDoV= 1 UseB2=F ITyADJ=14
 ICtDFT=  3500011 ScaDFX=  1.000000  1.000000  1.000000  1.000000
 FoFCou: FMM=F IPFlag=           0 FMFlag=      100000 FMFlg1=        2001
         NFxFlg=           0 DoJE=T BraDBF=F KetDBF=T FulRan=T
         wScrn=  0.000000 ICntrl=       500 IOpCl=  0 I1Cent=   200000004 NGrid=           0
         NMat0=    1 NMatS0=      1 NMatT0=    0 NMatD0=    1 NMtDS0=    0 NMtDT0=    0
 Petite list used in FoFCou.
 Harris En= -1501.45781446620    
 JPrj=0 DoOrth=F DoCkMO=F.
 Initial guess <Sx>= 0.0000 <Sy>= 0.0000 <Sz>= 0.5000 <S**2>= 0.7500 S= 0.5000
 Leave Link  401 at Wed Aug 20 10:09:59 2025, MaxMem=  7516192768 cpu:              70.9 elap:               3.2
 (Enter /share/apps/softwares/gaussian/16/g16/l502.exe)
 Integral symmetry usage will be decided dynamically.
 UHF open shell SCF:
 Using DIIS extrapolation, IDIIS=  1040.
 NGot=  7516192768 LenX=  7515158833 LenY=  7514654023
 Requested convergence on RMS density matrix=1.00D-08 within 128 cycles.
 Requested convergence on MAX density matrix=1.00D-06.
 Requested convergence on             energy=1.00D-06.
 No special actions if energy rises.
 Fock matrices will be formed incrementally for  20 cycles.
 Integral accuracy reduced to 1.0D-05 until final iterations.

 Cycle   1  Pass 0  IDiag  1:
 FoFJK:  IHMeth= 1 ICntrl=       0 DoSepK=F KAlg= 0 I1Cent=           0 FoldK=F
 IRaf= 670000000 NMat=       1 IRICut=       1 DoRegI=T DoRafI=F ISym2E= 0 IDoP0=0 IntGTp=1.
 FoFCou: FMM=T IPFlag=           0 FMFlag=      100000 FMFlg1=        2001
         NFxFlg=           0 DoJE=F BraDBF=F KetDBF=F FulRan=T
         wScrn=  0.000000 ICntrl=         0 IOpCl=  1 I1Cent=           0 NGrid=           0
         NMat0=    1 NMatS0=      1 NMatT0=    0 NMatD0=    1 NMtDS0=    0 NMtDT0=    0
 Symmetry not used in FoFCou.
 FMM levels:  10  Number of levels for PrismC:   9
 E= -1500.69201806492    
 DIIS: error= 4.35D-02 at cycle   1 NSaved=   1.
 NSaved= 1 IEnMin= 1 EnMin= -1500.69201806492     IErMin= 1 ErrMin= 4.35D-02
 ErrMax= 4.35D-02  0.00D+00 EMaxC= 1.00D-01 BMatC= 2.66D+00 BMatP= 2.66D+00
 IDIUse=3 WtCom= 5.65D-01 WtEn= 4.35D-01
 Coeff-Com:  0.100D+01
 Coeff-En:   0.100D+01
 Coeff:      0.100D+01
 Gap=     0.133 Goal=   None    Shift=    0.000
 Gap=     0.064 Goal=   None    Shift=    0.000
 GapD=    0.064 DampG=0.500 DampE=0.500 DampFc=0.2500 IDamp=-1.
 Damping current iteration by 2.50D-01
 RMSDP=3.07D-03 MaxDP=1.13D-01              OVMax= 1.47D-01

 Cycle   2  Pass 0  IDiag  1:
 RMSU=  7.20D-04    CP:  9.79D-01
 E= -1500.95049979174     Delta-E=       -0.258481726826 Rises=F Damp=T
 DIIS: error= 2.49D-02 at cycle   2 NSaved=   2.
 NSaved= 2 IEnMin= 2 EnMin= -1500.95049979174     IErMin= 2 ErrMin= 2.49D-02
 ErrMax= 2.49D-02  0.00D+00 EMaxC= 1.00D-01 BMatC= 8.69D-01 BMatP= 2.66D+00
 IDIUse=3 WtCom= 7.51D-01 WtEn= 2.49D-01
 Coeff-Com: -0.113D+01 0.213D+01
 Coeff-En:   0.000D+00 0.100D+01
 Coeff:     -0.849D+00 0.185D+01
 Gap=     0.112 Goal=   None    Shift=    0.000
 Gap=     0.087 Goal=   None    Shift=    0.000
 RMSDP=1.52D-03 MaxDP=8.51D-02 DE=-2.58D-01 OVMax= 1.20D-01

 Cycle   3  Pass 0  IDiag  1:
 RMSU=  8.39D-04    CP:  9.29D-01  2.54D+00
 E= -1501.41535572817     Delta-E=       -0.464855936430 Rises=F Damp=F
 DIIS: error= 5.69D-03 at cycle   3 NSaved=   3.
 NSaved= 3 IEnMin= 3 EnMin= -1501.41535572817     IErMin= 3 ErrMin= 5.69D-03
 ErrMax= 5.69D-03  0.00D+00 EMaxC= 1.00D-01 BMatC= 7.58D-02 BMatP= 8.69D-01
 IDIUse=3 WtCom= 9.43D-01 WtEn= 5.69D-02
 Coeff-Com: -0.361D+00 0.722D+00 0.639D+00
 Coeff-En:   0.000D+00 0.000D+00 0.100D+01
 Coeff:     -0.341D+00 0.681D+00 0.659D+00
 Gap=     0.127 Goal=   None    Shift=    0.000
 Gap=     0.075 Goal=   None    Shift=    0.000
 RMSDP=4.69D-04 MaxDP=5.63D-02 DE=-4.65D-01 OVMax= 9.96D-02

 Cycle   4  Pass 0  IDiag  1:
 RMSU=  4.33D-04    CP:  9.30D-01  2.46D+00  7.98D-01
 E= -1501.41554077573     Delta-E=       -0.000185047555 Rises=F Damp=F
 DIIS: error= 7.91D-03 at cycle   4 NSaved=   4.
 NSaved= 4 IEnMin= 4 EnMin= -1501.41554077573     IErMin= 3 ErrMin= 5.69D-03
 ErrMax= 7.91D-03  0.00D+00 EMaxC= 1.00D-01 BMatC= 7.22D-02 BMatP= 7.58D-02
 IDIUse=3 WtCom= 9.21D-01 WtEn= 7.91D-02
 Coeff-Com: -0.315D-01 0.982D-01 0.487D+00 0.447D+00
 Coeff-En:   0.000D+00 0.000D+00 0.498D+00 0.502D+00
 Coeff:     -0.290D-01 0.904D-01 0.487D+00 0.451D+00
 Gap=     0.117 Goal=   None    Shift=    0.000
 Gap=     0.084 Goal=   None    Shift=    0.000
 RMSDP=2.79D-04 MaxDP=1.96D-02 DE=-1.85D-04 OVMax= 5.84D-02

 Cycle   5  Pass 0  IDiag  1:
 RMSU=  1.17D-04    CP:  9.31D-01  2.45D+00  8.55D-01  4.28D-01
 E= -1501.43585409857     Delta-E=       -0.020313322842 Rises=F Damp=F
 DIIS: error= 1.89D-03 at cycle   5 NSaved=   5.
 NSaved= 5 IEnMin= 5 EnMin= -1501.43585409857     IErMin= 5 ErrMin= 1.89D-03
 ErrMax= 1.89D-03  0.00D+00 EMaxC= 1.00D-01 BMatC= 4.53D-03 BMatP= 7.22D-02
 IDIUse=3 WtCom= 9.81D-01 WtEn= 1.89D-02
 Coeff-Com:  0.105D-01-0.226D-02 0.230D+00 0.274D+00 0.487D+00
 Coeff-En:   0.000D+00 0.000D+00 0.000D+00 0.102D-02 0.999D+00
 Coeff:      0.103D-01-0.222D-02 0.226D+00 0.269D+00 0.496D+00
 Gap=     0.118 Goal=   None    Shift=    0.000
 Gap=     0.083 Goal=   None    Shift=    0.000
 RMSDP=7.24D-05 MaxDP=4.69D-03 DE=-2.03D-02 OVMax= 1.05D-02

 Cycle   6  Pass 0  IDiag  1:
 RMSU=  4.72D-05    CP:  9.31D-01  2.46D+00  8.63D-01  4.88D-01  5.97D-01
 E= -1501.43699356635     Delta-E=       -0.001139467779 Rises=F Damp=F
 DIIS: error= 6.60D-04 at cycle   6 NSaved=   6.
 NSaved= 6 IEnMin= 6 EnMin= -1501.43699356635     IErMin= 6 ErrMin= 6.60D-04
 ErrMax= 6.60D-04  0.00D+00 EMaxC= 1.00D-01 BMatC= 6.50D-04 BMatP= 4.53D-03
 IDIUse=3 WtCom= 9.93D-01 WtEn= 6.60D-03
 Coeff-Com:  0.930D-02-0.133D-01 0.608D-01 0.931D-01 0.306D+00 0.544D+00
 Coeff-En:   0.000D+00 0.000D+00 0.000D+00 0.000D+00 0.105D+00 0.895D+00
 Coeff:      0.924D-02-0.132D-01 0.604D-01 0.925D-01 0.305D+00 0.547D+00
 Gap=     0.119 Goal=   None    Shift=    0.000
 Gap=     0.084 Goal=   None    Shift=    0.000
 RMSDP=2.66D-05 MaxDP=2.45D-03 DE=-1.14D-03 OVMax= 3.97D-03

 Cycle   7  Pass 0  IDiag  1:
 RMSU=  1.71D-05    CP:  9.31D-01  2.46D+00  8.68D-01  4.94D-01  6.82D-01
                    CP:  6.41D-01
 E= -1501.43718484267     Delta-E=       -0.000191276325 Rises=F Damp=F
 DIIS: error= 2.39D-04 at cycle   7 NSaved=   7.
 NSaved= 7 IEnMin= 7 EnMin= -1501.43718484267     IErMin= 7 ErrMin= 2.39D-04
 ErrMax= 2.39D-04  0.00D+00 EMaxC= 1.00D-01 BMatC= 8.01D-05 BMatP= 6.50D-04
 IDIUse=3 WtCom= 9.98D-01 WtEn= 2.39D-03
 Coeff-Com:  0.444D-02-0.761D-02 0.119D-01 0.256D-01 0.121D+00 0.304D+00
 Coeff-Com:  0.540D+00
 Coeff-En:   0.000D+00 0.000D+00 0.000D+00 0.000D+00 0.000D+00 0.000D+00
 Coeff-En:   0.100D+01
 Coeff:      0.443D-02-0.759D-02 0.118D-01 0.256D-01 0.121D+00 0.304D+00
 Coeff:      0.541D+00
 Gap=     0.119 Goal=   None    Shift=    0.000
 Gap=     0.084 Goal=   None    Shift=    0.000
 RMSDP=1.13D-05 MaxDP=1.01D-03 DE=-1.91D-04 OVMax= 2.34D-03

 Cycle   8  Pass 0  IDiag  1:
 RMSU=  9.74D-06    CP:  9.31D-01  2.46D+00  8.68D-01  4.95D-01  6.88D-01
                    CP:  7.46D-01  8.45D-01
 E= -1501.43721271080     Delta-E=       -0.000027868125 Rises=F Damp=F
 DIIS: error= 1.71D-04 at cycle   8 NSaved=   8.
 NSaved= 8 IEnMin= 8 EnMin= -1501.43721271080     IErMin= 8 ErrMin= 1.71D-04
 ErrMax= 1.71D-04  0.00D+00 EMaxC= 1.00D-01 BMatC= 3.00D-05 BMatP= 8.01D-05
 IDIUse=3 WtCom= 9.98D-01 WtEn= 1.71D-03
 Coeff-Com: -0.205D-02 0.199D-02-0.264D-01-0.351D-01-0.866D-01-0.861D-01
 Coeff-Com:  0.395D+00 0.839D+00
 Coeff-En:   0.000D+00 0.000D+00 0.000D+00 0.000D+00 0.000D+00 0.000D+00
 Coeff-En:   0.000D+00 0.100D+01
 Coeff:     -0.205D-02 0.199D-02-0.263D-01-0.351D-01-0.864D-01-0.859D-01
 Coeff:      0.394D+00 0.840D+00
 Gap=     0.119 Goal=   None    Shift=    0.000
 Gap=     0.085 Goal=   None    Shift=    0.000
 RMSDP=1.05D-05 MaxDP=1.18D-03 DE=-2.79D-05 OVMax= 2.31D-03

 Cycle   9  Pass 0  IDiag  1:
 RMSU=  5.99D-06    CP:  9.31D-01  2.46D+00  8.68D-01  4.98D-01  7.07D-01
                    CP:  8.04D-01  1.30D+00  9.43D-01
 E= -1501.43723019255     Delta-E=       -0.000017481748 Rises=F Damp=F
 DIIS: error= 8.65D-05 at cycle   9 NSaved=   9.
 NSaved= 9 IEnMin= 9 EnMin= -1501.43723019255     IErMin= 9 ErrMin= 8.65D-05
 ErrMax= 8.65D-05  0.00D+00 EMaxC= 1.00D-01 BMatC= 1.24D-05 BMatP= 3.00D-05
 IDIUse=1 WtCom= 1.00D+00 WtEn= 0.00D+00
 Coeff-Com: -0.272D-02 0.355D-02-0.217D-01-0.314D-01-0.908D-01-0.133D+00
 Coeff-Com:  0.147D+00 0.600D+00 0.530D+00
 Coeff:     -0.272D-02 0.355D-02-0.217D-01-0.314D-01-0.908D-01-0.133D+00
 Coeff:      0.147D+00 0.600D+00 0.530D+00
 Gap=     0.119 Goal=   None    Shift=    0.000
 Gap=     0.085 Goal=   None    Shift=    0.000
 RMSDP=5.11D-06 MaxDP=3.77D-04 DE=-1.75D-05 OVMax= 1.14D-03

 Initial convergence to 1.0D-05 achieved.  Increase integral accuracy.
 Cycle  10  Pass 1  IDiag  1:
 E= -1501.43730058765     Delta-E=       -0.000070395105 Rises=F Damp=F
 DIIS: error= 2.16D-04 at cycle   1 NSaved=   1.
 NSaved= 1 IEnMin= 1 EnMin= -1501.43730058765     IErMin= 1 ErrMin= 2.16D-04
 ErrMax= 2.16D-04  0.00D+00 EMaxC= 1.00D-01 BMatC= 4.69D-05 BMatP= 4.69D-05
 IDIUse=3 WtCom= 9.98D-01 WtEn= 2.16D-03
 Coeff-Com:  0.100D+01
 Coeff-En:   0.100D+01
 Coeff:      0.100D+01
 Gap=     0.119 Goal=   None    Shift=    0.000
 Gap=     0.085 Goal=   None    Shift=    0.000
 RMSDP=5.11D-06 MaxDP=3.77D-04 DE=-7.04D-05 OVMax= 8.49D-04

 Cycle  11  Pass 1  IDiag  1:
 RMSU=  1.01D-04    CP:  1.00D+00
 E= -1501.43730858148     Delta-E=       -0.000007993825 Rises=F Damp=F
 DIIS: error= 7.22D-05 at cycle   2 NSaved=   2.
 NSaved= 2 IEnMin= 2 EnMin= -1501.43730858148     IErMin= 2 ErrMin= 7.22D-05
 ErrMax= 7.22D-05  0.00D+00 EMaxC= 1.00D-01 BMatC= 7.88D-06 BMatP= 4.69D-05
 IDIUse=1 WtCom= 1.00D+00 WtEn= 0.00D+00
 Coeff-Com:  0.177D+00 0.823D+00
 Coeff:      0.177D+00 0.823D+00
 Gap=     0.119 Goal=   None    Shift=    0.000
 Gap=     0.085 Goal=   None    Shift=    0.000
 RMSDP=6.60D-06 MaxDP=4.53D-04 DE=-7.99D-06 OVMax= 1.73D-03

 Cycle  12  Pass 1  IDiag  1:
 RMSU=  6.57D-06    CP:  1.00D+00  1.01D+00
 E= -1501.43730407068     Delta-E=        0.000004510794 Rises=F Damp=F
 DIIS: error= 1.37D-04 at cycle   3 NSaved=   3.
 NSaved= 3 IEnMin= 2 EnMin= -1501.43730858148     IErMin= 2 ErrMin= 7.22D-05
 ErrMax= 1.37D-04  0.00D+00 EMaxC= 1.00D-01 BMatC= 2.38D-05 BMatP= 7.88D-06
 IDIUse=3 WtCom= 4.61D-01 WtEn= 5.39D-01
 Coeff-Com: -0.461D-02 0.639D+00 0.366D+00
 Coeff-En:   0.000D+00 0.689D+00 0.311D+00
 Coeff:     -0.212D-02 0.666D+00 0.336D+00
 Gap=     0.119 Goal=   None    Shift=    0.000
 Gap=     0.085 Goal=   None    Shift=    0.000
 RMSDP=3.88D-06 MaxDP=3.17D-04 DE= 4.51D-06 OVMax= 1.10D-03

 Cycle  13  Pass 1  IDiag  1:
 RMSU=  9.63D-07    CP:  1.00D+00  1.01D+00  4.31D-01
 E= -1501.43731101416     Delta-E=       -0.000006943477 Rises=F Damp=F
 DIIS: error= 1.35D-05 at cycle   4 NSaved=   4.
 NSaved= 4 IEnMin= 4 EnMin= -1501.43731101416     IErMin= 4 ErrMin= 1.35D-05
 ErrMax= 1.35D-05  0.00D+00 EMaxC= 1.00D-01 BMatC= 4.64D-07 BMatP= 7.88D-06
 IDIUse=1 WtCom= 1.00D+00 WtEn= 0.00D+00
 Coeff-Com: -0.611D-02 0.396D+00 0.192D+00 0.419D+00
 Coeff:     -0.611D-02 0.396D+00 0.192D+00 0.419D+00
 Gap=     0.119 Goal=   None    Shift=    0.000
 Gap=     0.085 Goal=   None    Shift=    0.000
 RMSDP=6.22D-07 MaxDP=3.58D-05 DE=-6.94D-06 OVMax= 1.05D-04

 Cycle  14  Pass 1  IDiag  1:
 RMSU=  5.27D-07    CP:  1.00D+00  1.01D+00  3.87D-01  8.44D-01
 E= -1501.43731116203     Delta-E=       -0.000000147873 Rises=F Damp=F
 DIIS: error= 1.01D-05 at cycle   5 NSaved=   5.
 NSaved= 5 IEnMin= 5 EnMin= -1501.43731116203     IErMin= 5 ErrMin= 1.01D-05
 ErrMax= 1.01D-05  0.00D+00 EMaxC= 1.00D-01 BMatC= 5.15D-08 BMatP= 4.64D-07
 IDIUse=1 WtCom= 1.00D+00 WtEn= 0.00D+00
 Coeff-Com:  0.137D-02-0.301D+00-0.177D+00 0.882D-01 0.139D+01
 Coeff:      0.137D-02-0.301D+00-0.177D+00 0.882D-01 0.139D+01
 Gap=     0.119 Goal=   None    Shift=    0.000
 Gap=     0.085 Goal=   None    Shift=    0.000
 RMSDP=7.03D-07 MaxDP=7.68D-05 DE=-1.48D-07 OVMax= 1.97D-04

 Cycle  15  Pass 1  IDiag  1:
 RMSU=  3.23D-07    CP:  1.00D+00  1.01D+00  4.00D-01  1.41D+00  1.55D+00
 E= -1501.43731123676     Delta-E=       -0.000000074728 Rises=F Damp=F
 DIIS: error= 7.46D-06 at cycle   6 NSaved=   6.
 NSaved= 6 IEnMin= 6 EnMin= -1501.43731123676     IErMin= 6 ErrMin= 7.46D-06
 ErrMax= 7.46D-06  0.00D+00 EMaxC= 1.00D-01 BMatC= 4.80D-08 BMatP= 5.15D-08
 IDIUse=1 WtCom= 1.00D+00 WtEn= 0.00D+00
 Coeff-Com:  0.336D-02-0.391D+00-0.215D+00-0.836D-01 0.113D+01 0.551D+00
 Coeff:      0.336D-02-0.391D+00-0.215D+00-0.836D-01 0.113D+01 0.551D+00
 Gap=     0.119 Goal=   None    Shift=    0.000
 Gap=     0.085 Goal=   None    Shift=    0.000
 RMSDP=3.75D-07 MaxDP=4.19D-05 DE=-7.47D-08 OVMax= 9.58D-05

 Cycle  16  Pass 1  IDiag  1:
 RMSU=  1.65D-07    CP:  1.00D+00  1.01D+00  4.06D-01  1.63D+00  2.02D+00
                    CP:  7.51D-01
 E= -1501.43731125981     Delta-E=       -0.000000023048 Rises=F Damp=F
 DIIS: error= 1.98D-06 at cycle   7 NSaved=   7.
 NSaved= 7 IEnMin= 7 EnMin= -1501.43731125981     IErMin= 7 ErrMin= 1.98D-06
 ErrMax= 1.98D-06  0.00D+00 EMaxC= 1.00D-01 BMatC= 3.96D-09 BMatP= 4.80D-08
 IDIUse=1 WtCom= 1.00D+00 WtEn= 0.00D+00
 Coeff-Com:  0.188D-02-0.204D+00-0.111D+00-0.585D-01 0.536D+00 0.331D+00
 Coeff-Com:  0.505D+00
 Coeff:      0.188D-02-0.204D+00-0.111D+00-0.585D-01 0.536D+00 0.331D+00
 Coeff:      0.505D+00
 Gap=     0.119 Goal=   None    Shift=    0.000
 Gap=     0.085 Goal=   None    Shift=    0.000
 RMSDP=8.83D-08 MaxDP=9.02D-06 DE=-2.30D-08 OVMax= 2.26D-05

 Cycle  17  Pass 1  IDiag  1:
 RMSU=  5.99D-08    CP:  1.00D+00  1.01D+00  4.07D-01  1.66D+00  2.08D+00
                    CP:  8.65D-01  8.21D-01
 E= -1501.43731126093     Delta-E=       -0.000000001124 Rises=F Damp=F
 DIIS: error= 1.02D-06 at cycle   8 NSaved=   8.
 NSaved= 8 IEnMin= 8 EnMin= -1501.43731126093     IErMin= 8 ErrMin= 1.02D-06
 ErrMax= 1.02D-06  0.00D+00 EMaxC= 1.00D-01 BMatC= 1.05D-09 BMatP= 3.96D-09
 IDIUse=1 WtCom= 1.00D+00 WtEn= 0.00D+00
 Coeff-Com:  0.751D-03-0.771D-01-0.420D-01-0.261D-01 0.184D+00 0.140D+00
 Coeff-Com:  0.361D+00 0.459D+00
 Coeff:      0.751D-03-0.771D-01-0.420D-01-0.261D-01 0.184D+00 0.140D+00
 Coeff:      0.361D+00 0.459D+00
 Gap=     0.119 Goal=   None    Shift=    0.000
 Gap=     0.085 Goal=   None    Shift=    0.000
 RMSDP=3.29D-08 MaxDP=3.25D-06 DE=-1.12D-09 OVMax= 7.70D-06

 Cycle  18  Pass 1  IDiag  1:
 RMSU=  2.03D-08    CP:  1.00D+00  1.01D+00  4.07D-01  1.67D+00  2.08D+00
                    CP:  8.54D-01  8.67D-01  6.11D-01
 E= -1501.43731126125     Delta-E=       -0.000000000317 Rises=F Damp=F
 DIIS: error= 2.63D-07 at cycle   9 NSaved=   9.
 NSaved= 9 IEnMin= 9 EnMin= -1501.43731126125     IErMin= 9 ErrMin= 2.63D-07
 ErrMax= 2.63D-07  0.00D+00 EMaxC= 1.00D-01 BMatC= 3.90D-11 BMatP= 1.05D-09
 IDIUse=1 WtCom= 1.00D+00 WtEn= 0.00D+00
 Coeff-Com:  0.231D-04-0.855D-03-0.522D-03-0.115D-02-0.406D-02 0.606D-02
 Coeff-Com:  0.575D-01 0.143D+00 0.800D+00
 Coeff:      0.231D-04-0.855D-03-0.522D-03-0.115D-02-0.406D-02 0.606D-02
 Coeff:      0.575D-01 0.143D+00 0.800D+00
 Gap=     0.119 Goal=   None    Shift=    0.000
 Gap=     0.085 Goal=   None    Shift=    0.000
 RMSDP=1.11D-08 MaxDP=1.12D-06 DE=-3.17D-10 OVMax= 3.00D-06

 Cycle  19  Pass 1  IDiag  1:
 RMSU=  1.01D-08    CP:  1.00D+00  1.01D+00  4.07D-01  1.67D+00  2.09D+00
                    CP:  8.61D-01  8.83D-01  6.58D-01  1.04D+00
 E= -1501.43731126124     Delta-E=        0.000000000006 Rises=F Damp=F
 DIIS: error= 1.87D-07 at cycle  10 NSaved=  10.
 NSaved=10 IEnMin= 9 EnMin= -1501.43731126125     IErMin=10 ErrMin= 1.87D-07
 ErrMax= 1.87D-07  0.00D+00 EMaxC= 1.00D-01 BMatC= 2.76D-11 BMatP= 3.90D-11
 IDIUse=1 WtCom= 1.00D+00 WtEn= 0.00D+00
 Coeff-Com: -0.213D-03 0.229D-01 0.124D-01 0.716D-02-0.591D-01-0.383D-01
 Coeff-Com: -0.706D-01-0.455D-01 0.528D+00 0.643D+00
 Coeff:     -0.213D-03 0.229D-01 0.124D-01 0.716D-02-0.591D-01-0.383D-01
 Coeff:     -0.706D-01-0.455D-01 0.528D+00 0.643D+00
 Gap=     0.119 Goal=   None    Shift=    0.000
 Gap=     0.085 Goal=   None    Shift=    0.000
 RMSDP=8.32D-09 MaxDP=8.80D-07 DE= 6.37D-12 OVMax= 2.43D-06

 SCF Done:  E(UB3LYP) =  -1501.43731126     A.U. after   19 cycles
            NFock= 19  Conv=0.83D-08     -V/T= 2.0096
 <Sx>= 0.0000 <Sy>= 0.0000 <Sz>= 0.5000 <S**2>= 0.7739 S= 0.5119
 <L.S>=  0.00000000000    
 KE= 1.487113020230D+03 PE=-1.049810722781D+04 EE= 3.998771016027D+03
 Annihilation of the first spin contaminant:
 S**2 before annihilation     0.7739,   after     0.7505
 Leave Link  502 at Wed Aug 20 10:12:08 2025, MaxMem=  7516192768 cpu:            3075.7 elap:             128.6
 (Enter /share/apps/softwares/gaussian/16/g16/l801.exe)
 DoSCS=F DFT=T ScalE2(SS,OS)=  1.000000  1.000000
 Range of M.O.s used for correlation:     1   710
 NBasis=   710 NAE=   130 NBE=   129 NFC=     0 NFV=     0
 NROrb=    710 NOA=   130 NOB=   129 NVA=   580 NVB=   581

 **** Warning!!: The largest alpha MO coefficient is  0.10633301D+02


 **** Warning!!: The largest beta MO coefficient is  0.11629550D+02


 **** Warning!!: The smallest beta delta epsilon is  0.85000763D-01

 Leave Link  801 at Wed Aug 20 10:12:10 2025, MaxMem=  7516192768 cpu:               5.4 elap:               0.5
 (Enter /share/apps/softwares/gaussian/16/g16/l1101.exe)
 Using compressed storage, NAtomX=    64.
 Will process     65 centers per pass.
 R6Disp: Adding Grimme-D3(BJ) dispersion energy 1st derivatives to the gradient.
 Leave Link 1101 at Wed Aug 20 10:12:14 2025, MaxMem=  7516192768 cpu:              60.4 elap:               2.8
 (Enter /share/apps/softwares/gaussian/16/g16/l1102.exe)
 Symmetrizing basis deriv contribution to polar:
 IMax=3 JMax=2 DiffMx= 0.00D+00
 Leave Link 1102 at Wed Aug 20 10:12:21 2025, MaxMem=  7516192768 cpu:               3.9 elap:               0.3
 (Enter /share/apps/softwares/gaussian/16/g16/l1110.exe)
 Forming Gx(P) for the SCF density, NAtomX=    64.
 Integral derivatives from FoFJK, PRISM(SPDF).
 Do as many integral derivatives as possible in FoFJK.
 G2DrvN: MDV=    7516186168.
 G2DrvN: will do    65 centers at a time, making    1 passes.
 Calling FoFCou, ICntrl=  3107 FMM=T I1Cent=   0 AccDes= 0.00D+00.
 FoFJK:  IHMeth= 1 ICntrl=    3107 DoSepK=F KAlg= 0 I1Cent=           0 FoldK=F
 IRaf=         0 NMat=       1 IRICut=       1 DoRegI=T DoRafI=F ISym2E= 0 IDoP0=0 IntGTp=1.
 FoFCou: FMM=T IPFlag=           0 FMFlag=      100000 FMFlg1=        2001
         NFxFlg=           0 DoJE=F BraDBF=F KetDBF=F FulRan=T
         wScrn=  0.000000 ICntrl=      3107 IOpCl=  1 I1Cent=           0 NGrid=           0
         NMat0=    1 NMatS0=      1 NMatT0=    0 NMatD0=    1 NMtDS0=    0 NMtDT0=    0
 Symmetry not used in FoFCou.
 FMM levels:  10  Number of levels for PrismC:   9
 End of G2Drv F.D. properties file   721 does not exist.
 End of G2Drv F.D. properties file   722 does not exist.
 End of G2Drv F.D. properties file   788 does not exist.
 Leave Link 1110 at Wed Aug 20 10:20:59 2025, MaxMem=  7516192768 cpu:           12397.7 elap:             517.1
 (Enter /share/apps/softwares/gaussian/16/g16/l1002.exe)
 Minotr:  UHF open shell wavefunction.
          IDoAtm=11111111111111111111111111111111111111111111111111
          IDoAtm=11111111111111
          Direct CPHF calculation.
          Differentiating once with respect to nuclear coordinates.
          Requested convergence is 1.0D-08 RMS, and 1.0D-07 maximum.
          Secondary convergence is 1.0D-12 RMS, and 1.0D-12 maximum.
          NewPWx=T KeepS1=F KeepF1=F KeepIn=T MapXYZ=F SortEE=F KeepMc=T.
        19612 words used for storage of precomputed grid.
 Two-electron integrals replicated using symmetry.
          MDV=    7516192768 using IRadAn=       1.
          Solving linear equations simultaneously, MaxMat=      72.
 FoF2E skips out because all densities are zero.
 CalDSu exits because no D1Ps are significant.
 FoFJK:  IHMeth= 1 ICntrl=       0 DoSepK=F KAlg= 0 I1Cent=           0 FoldK=F
 IRaf= 610000000 NMat=      72 IRICut=       1 DoRegI=T DoRafI=F ISym2E= 2 IDoP0=0 IntGTp=1.
 FoFCou: FMM=T IPFlag=           0 FMFlag=      100000 FMFlg1=        2001
         NFxFlg=           0 DoJE=F BraDBF=F KetDBF=F FulRan=T
         wScrn=  0.000000 ICntrl=         0 IOpCl=  1 I1Cent=           0 NGrid=           0
         NMat0=   72 NMatS0=     72 NMatT0=    0 NMatD0=   72 NMtDS0=    0 NMtDT0=    0
 Symmetry not used in FoFCou.
 FMM levels:  10  Number of levels for PrismC:   9
          There are   195 degrees of freedom in the 1st order CPHF.  IDoFFX=6 NUNeed=     0.
    189 vectors produced by pass  0 Test12= 1.50D-13 1.00D-09 XBig12= 3.48D-01 2.73D-01.
 AX will form    72 AO Fock derivatives at one time.
    189 vectors produced by pass  1 Test12= 1.50D-13 1.00D-09 XBig12= 7.61D-02 6.49D-02.
    189 vectors produced by pass  2 Test12= 1.50D-13 1.00D-09 XBig12= 1.27D-03 7.54D-03.
    189 vectors produced by pass  3 Test12= 1.50D-13 1.00D-09 XBig12= 8.44D-06 4.85D-04.
    189 vectors produced by pass  4 Test12= 1.50D-13 1.00D-09 XBig12= 5.88D-08 4.18D-05.
    187 vectors produced by pass  5 Test12= 1.50D-13 1.00D-09 XBig12= 3.11D-10 1.44D-06.
    108 vectors produced by pass  6 Test12= 1.50D-13 1.00D-09 XBig12= 1.09D-12 9.80D-08.
     32 vectors produced by pass  7 Test12= 1.50D-13 1.00D-09 XBig12= 4.67D-15 5.59D-09.
      2 vectors produced by pass  8 Test12= 1.50D-13 1.00D-09 XBig12= 1.35D-15 1.60D-09.
 InvSVY:  IOpt=1 It=  1 EMax= 8.33D-16
 Solved reduced A of dimension  1274 with   195 vectors.
 End of Minotr F.D. properties file   721 does not exist.
 End of Minotr F.D. properties file   722 does not exist.
 End of Minotr F.D. properties file   788 does not exist.
 Leave Link 1002 at Wed Aug 20 10:51:01 2025, MaxMem=  7516192768 cpu:           43050.3 elap:            1794.8
 (Enter /share/apps/softwares/gaussian/16/g16/l601.exe)
 Copying SCF densities to generalized density rwf, IOpCl= 1 IROHF=0.

 **********************************************************************

            Population analysis using the SCF Density.

 **********************************************************************

 Orbital symmetries:
 Alpha Orbitals:
       Occupied  (A) (A) (A) (A) (A) (A) (A) (A) (A) (A) (A) (A)
                 (A) (A) (A) (A) (A) (A) (A) (A) (A) (A) (A) (A)
                 (A) (A) (A) (A) (A) (A) (A) (A) (A) (A) (A) (A)
                 (A) (A) (A) (A) (A) (A) (A) (A) (A) (A) (A) (A)
                 (A) (A) (A) (A) (A) (A) (A) (A) (A) (A) (A) (A)
                 (A) (A) (A) (A) (A) (A) (A) (A) (A) (A) (A) (A)
                 (A) (A) (A) (A) (A) (A) (A) (A) (A) (A) (A) (A)
                 (A) (A) (A) (A) (A) (A) (A) (A) (A) (A) (A) (A)
                 (A) (A) (A) (A) (A) (A) (A) (A) (A) (A) (A) (A)
                 (A) (A) (A) (A) (A) (A) (A) (A) (A) (A) (A) (A)
                 (A) (A) (A) (A) (A) (A) (A) (A) (A) (A)
       Virtual   (A) (A) (A) (A) (A) (A) (A) (A) (A) (A) (A) (A)
                 (A) (A) (A) (A) (A) (A) (A) (A) (A) (A) (A) (A)
                 (A) (A) (A) (A) (A) (A) (A) (A) (A) (A) (A) (A)
                 (A) (A) (A) (A) (A) (A) (A) (A) (A) (A) (A) (A)
                 (A) (A) (A) (A) (A) (A) (A) (A) (A) (A) (A) (A)
                 (A) (A) (A) (A) (A) (A) (A) (A) (A) (A) (A) (A)
                 (A) (A) (A) (A) (A) (A) (A) (A) (A) (A) (A) (A)
                 (A) (A) (A) (A) (A) (A) (A) (A) (A) (A) (A) (A)
                 (A) (A) (A) (A) (A) (A) (A) (A) (A) (A) (A) (A)
                 (A) (A) (A) (A) (A) (A) (A) (A) (A) (A) (A) (A)
                 (A) (A) (A) (A) (A) (A) (A) (A) (A) (A) (A) (A)
                 (A) (A) (A) (A) (A) (A) (A) (A) (A) (A) (A) (A)
                 (A) (A) (A) (A) (A) (A) (A) (A) (A) (A) (A) (A)
                 (A) (A) (A) (A) (A) (A) (A) (A) (A) (A) (A) (A)
                 (A) (A) (A) (A) (A) (A) (A) (A) (A) (A) (A) (A)
                 (A) (A) (A) (A) (A) (A) (A) (A) (A) (A) (A) (A)
                 (A) (A) (A) (A) (A) (A) (A) (A) (A) (A) (A) (A)
                 (A) (A) (A) (A) (A) (A) (A) (A) (A) (A) (A) (A)
                 (A) (A) (A) (A) (A) (A) (A) (A) (A) (A) (A) (A)
                 (A) (A) (A) (A) (A) (A) (A) (A) (A) (A) (A) (A)
                 (A) (A) (A) (A) (A) (A) (A) (A) (A) (A) (A) (A)
                 (A) (A) (A) (A) (A) (A) (A) (A) (A) (A) (A) (A)
                 (A) (A) (A) (A) (A) (A) (A) (A) (A) (A) (A) (A)
                 (A) (A) (A) (A) (A) (A) (A) (A) (A) (A) (A) (A)
                 (A) (A) (A) (A) (A) (A) (A) (A) (A) (A) (A) (A)
                 (A) (A) (A) (A) (A) (A) (A) (A) (A) (A) (A) (A)
                 (A) (A) (A) (A) (A) (A) (A) (A) (A) (A) (A) (A)
                 (A) (A) (A) (A) (A) (A) (A) (A) (A) (A) (A) (A)
[...]
 0802013,0.00149770,0.00415198,-0.00362720,0.00057185,-0.00036260,0.000
 34397,-0.00005335,0.00000811,-0.00002656,-0.00000409,0.00000218,0.0000
 0045,-0.00000060,0.00001452,0.00000125,-0.00001093,-0.00001674,0.00001
 711,-0.00013725,-0.00348330,0.00206544,-0.00006139,-0.00089052,0.00041
 101,-0.00124208,-0.00259244,0.00135618,0.00049037,-0.00019500,-0.00018
 682,-0.00007122,0.00004678,-0.00004626,0.00002179,0.00012562,0.0001039
 5,0.00005716,-0.00012848,-0.00005366,0.00004511,-0.00001794,-0.0000030
 6,0.00001051,0.00004252,0.00001757,0.00001015,-0.00000339,-0.00000084,
 -0.00041143,0.00004515,0.00020669,-0.00083423,-0.00049764,0.00009745,0
 .00028140,-0.00016287,-0.00021166,-0.00011820,-0.00009647,0.00003152,-
 0.00000648,-0.00010708,-0.00002825,0.00002640,-0.00000188,0.00000967,-
 0.00001126,0.00000293,-0.00002314,0.00000222,-0.00001441,0.00000866,0.
 00000228,0.00000066,0.00000287,-0.00000077,0.00000627,-0.00000453,0.00
 000326,0.00000096,-0.00000034,-0.00000073,-0.00000132,0.00000064,-0.00
 000061,-0.00000032,0.00000027,-0.00000258,-0.00000207,0.00000158,0.000
 00121,0.00000108,0.00000015,-0.00000129,0.00000176,-0.00000022,-0.0000
 0138,0.00000071,-0.00000008,0.00000131,0.00000004,0.00000043,0.0000003
 0,0.00000191,-0.00000126,0.00000010,0.00000146,0.00000063,0.00000008,-
 0.00000234,0.00000028,0.00000029,-0.00000159,0.00000046,-0.00000016,-0
 .00000025,-0.00000014,-0.00000098,-0.00000161,0.00000075,-0.00000014,-
 0.00000029,-0.00000007,-0.00000015,-0.00000197,-0.00000090,0.00000025,
 -0.00000013,-0.00000009,-0.00000047,-0.00000045,-0.00000032,-0.0000094
 6,-0.00001649,-0.00000282,-0.00000004,-0.00000019,0.00000023,-0.000000
 15,-0.00000009,-0.00000024,0.00000158,-0.00000644,-0.00000559,0.000019
 54,0.00001025,-0.00001418,-0.00150118,-0.00119276,0.00085579,-0.000397
 33,0.00015718,-0.00054157,0.05136655,0.06670298,0.00024042,-0.00001834
 ,0.00005112,-0.00004506,0.00002022,-0.00001677,0.00000848,-0.00001432,
 0.00000735,-0.00000956,0.00000036,0.00000131,0.00002240,-0.00000471,-0
 .00001586,0.00000346,0.00002890,0.00002961,0.00073657,-0.00211543,0.00
 254580,0.00241991,0.00032459,0.00408645,-0.11163129,-0.08479492,-0.239
 39842,-0.01421329,-0.00801663,-0.01557363,0.00387210,-0.00332851,-0.00
 151173,0.00067817,0.00033671,0.00000930,0.00003369,0.00001234,-0.00000
 611,-0.00000546,-0.00000102,0.00000496,-0.00000419,-0.00000407,-0.0000
 0315,0.00001190,-0.00000175,0.00000064,-0.00021321,0.00186035,0.000033
 00,-0.00009129,0.00038199,-0.00017980,-0.00124496,0.00118278,-0.000004
 50,0.00002767,0.00017689,0.00019552,-0.00012974,0.00004752,0.00004273,
 -0.00009558,-0.00013149,-0.00001369,0.00007703,-0.00002383,-0.00002077
 ,-0.00005910,0.00009125,0.00002921,0.00006338,0.00005711,0.00002998,0.
 00000579,-0.00001063,-0.00000296,0.00036213,-0.00006596,-0.00010505,0.
 00040898,-0.00088522,0.00022646,0.00034765,-0.00007731,0.00004334,-0.0
 0021659,0.00030037,0.00026383,-0.00010580,0.00001792,-0.00002299,-0.00
 011589,0.00000264,-0.00006416,0.00000382,-0.00004133,0.00001558,-0.000
 01907,0.00000166,0.00000911,-0.00001450,-0.00000687,0.00000036,-0.0000
 1435,0.00000433,-0.00000018,0.00000246,0.00000263,0.00000146,-0.000000
 79,0.00000020,-0.00000078,-0.00000089,0.00000029,0.00000049,0.00000512
 ,-0.00000170,-0.00000118,-0.00000187,-0.00000078,-0.00000012,-0.000000
 15,-0.00000834,-0.00000038,0.00000010,0.00000032,-0.00000002,-0.000001
 18,-0.00000054,0.00000012,-0.00000072,0.00000637,0.00000013,-0.0000012
 7,-0.00000048,0.00000042,0.00000141,-0.00000081,-0.00000008,0.00000071
 ,0.00000195,-0.00000013,-0.00000217,0.00000013,-0.00000024,0.00000188,
 0.00000262,-0.00000010,-0.00000221,0.00000006,0.00000015,0.00000095,-0
 .00000046,-0.00000032,-0.00000206,0.00000208,-0.00000041,-0.00000175,-
 0.00000189,0.00000031,0.00003277,0.00000448,0.00000145,-0.00000383,0.0
 0000009,0.00000004,-0.00000203,0.00000003,-0.00000001,-0.00000557,0.00
 001294,0.00000095,-0.00006983,0.00001460,-0.00001497,-0.00026418,0.000
 92696,0.00000155,-0.00079845,-0.00054157,-0.00082683,0.12000434,0.0941
 8106,0.25013584,-0.00002000,0.00000106,0.00002075,0.00000663,0.0000067
 6,0.00000560,-0.00000024,-0.00000427,0.00000357,0.00000392,-0.00000014
 ,0.00000016,0.00000016,0.00000317,-0.00000173,0.00001291,0.00000088,-0
 .00000778,-0.00003559,-0.00014461,-0.00003061,0.00000833,0.00003712,0.
 00002675,0.00009993,-0.00020119,0.00006572,0.00052391,0.00015972,0.000
 15479,-0.00083778,0.00106726,-0.00120343,-0.00029705,0.00013583,0.0002
 1520,-0.00000158,-0.00000124,0.00000147,0.00000141,-0.00000121,-0.0000
 0137,0.00000219,-0.00000118,0.00000114,-0.00000239,-0.00000143,-0.0000
 0102,0.00000783,0.00003600,-0.00001984,0.00001389,0.00003636,-0.000019
 05,-0.00062437,0.00087057,0.00015187,-0.00244283,-0.00166267,-0.000722
 39,0.00176527,-0.00051565,0.00015978,-0.31061224,-0.08221999,-0.028628
 76,0.00049920,0.00021766,0.00006879,-0.01732545,-0.00943608,-0.0039595
 6,-0.00108743,0.00365291,0.00208467,-0.00007170,-0.00002199,-0.0000778
 2,0.00000347,-0.00034640,-0.00019154,-0.00000874,0.00015309,0.00006128
 ,-0.00042170,-0.00004616,-0.00000749,-0.00012722,-0.00008303,-0.000033
 91,0.00013245,0.00001543,0.00002075,0.00006481,-0.00009760,-0.00003923
 ,-0.00000271,-0.00001154,-0.00000656,-0.00000360,0.00001033,0.00000418
 ,0.00000404,0.00000092,-0.00000081,0.00000284,-0.00000352,0.00000087,-
 0.00000197,-0.00000015,0.00000023,0.00000005,-0.00000011,0.00000021,0.
 00000006,0.00000004,-0.00000033,0.00000067,0.00000177,0.00000058,-0.00
 000011,-0.00000031,0.00000039,0.00000036,0.00000095,-0.00000036,0.0000
 0117,-0.00000013,0.00000024,-0.00000058,0.00000007,0.00000021,-0.00000
 037,-0.00000329,-0.00000039,0.00000106,-0.00000156,0.00000052,-0.00000
 025,0.00000103,0.00000014,-0.00000006,0.00000028,-0.00000045,0.0000003
 2,-0.00000010,-0.00000006,0.00000029,0.00000137,-0.00000009,0.00000029
 ,0.00000022,-0.00000029,-0.00000003,0.00000158,-0.00000048,0.00000014,
 -0.00000015,-0.00000014,0.00000078,0.00000044,-0.00000032,-0.00000721,
 0.00000082,0.00000038,0.00000144,0.00000026,0.00000027,0.00000028,-0.0
 0000001,-0.00000019,0.00101431,0.00020926,-0.00005487,0.00000058,-0.00
 001653,-0.00001612,0.00001756,-0.00001314,-0.00000909,-0.00092304,0.00
 150117,0.00026417,-0.00001023,-0.00000930,0.00001232,0.33161642,0.0000
 9269,0.00001337,0.00005667,-0.00005748,-0.00000314,-0.00000446,-0.0000
 0495,-0.00000402,0.00000133,-0.00000407,0.00000037,-0.00000141,-0.0000
 0395,-0.00000101,0.00000877,-0.00003052,0.00000753,-0.00001093,0.00002
 487,0.00003807,0.00021774,-0.00021422,-0.00003669,0.00005725,0.0002692
 3,0.00017314,-0.00008961,-0.00034092,-0.00059418,-0.00037745,0.0005979
 7,-0.00043855,-0.00061694,0.00040668,0.00024270,0.00013238,0.00001216,
 0.00000839,-0.00001268,-0.00000902,0.00000007,0.00000663,-0.00000657,0
 .00000182,-0.00000623,0.00001284,-0.00000906,0.00001811,0.00000039,0.0
 0000265,0.00001856,-0.00001332,0.00001751,-0.00004457,0.00037238,0.000
 27936,0.00163550,-0.02816218,-0.00224581,-0.00166504,0.00090689,-0.002
 68504,-0.00429595,-0.08276213,-0.08211469,-0.01870734,0.00033646,-0.00
 101762,-0.00033913,0.01874105,0.00968641,0.00251905,0.00289184,-0.0007
 0952,-0.00376297,-0.00012157,-0.00009664,0.00055926,-0.00014149,-0.000
 15482,-0.00006503,0.00009212,0.00010403,-0.00002406,-0.00165834,-0.000
 19397,-0.00030086,-0.00007369,-0.00007160,-0.00002016,0.00036274,-0.00
 026949,-0.00003766,-0.00004713,-0.00013505,-0.00004859,0.00000586,-0.0
 0000637,0.00000187,0.00000279,0.00002983,0.00000175,-0.00001879,-0.000
 00646,0.00000164,-0.00001686,0.00001035,-0.00000194,0.00000740,0.00000
 236,0.00000154,-0.00000123,-0.00000035,-0.00000071,-0.00000128,0.00000
 033,0.00000057,0.00000320,-0.00000481,-0.00000177,-0.00000115,0.000000
 78,-0.00000029,-0.00000098,-0.00000765,-0.00000053,-0.00000214,0.00000
 082,-0.00000024,0.00000049,-0.00000069,0.00000004,-0.00000005,0.000011
 08,0.00000073,-0.00000259,0.00000207,-0.00000038,0.00000218,-0.0000038
 1,0.00000021,0.00000121,0.00000019,0.00000032,-0.00000276,-0.00000003,
 -0.00000023,0.00000124,0.00000033,0.00000019,-0.00000269,-0.00000023,0
 .00000039,0.00000097,-0.00000306,0.00000041,-0.00000210,0.00000225,-0.
 00000042,-0.00000292,-0.00000269,0.00000066,0.00003712,-0.00000109,0.0
 0000068,-0.00000500,-0.00000032,-0.00000007,-0.00000254,-0.00000003,0.
 00000010,-0.00038156,0.00003477,0.00186906,0.00001163,-0.00004814,-0.0
 0004224,0.00001314,-0.00005481,-0.00001703,0.00078761,-0.00119276,0.00
 092696,-0.00003853,0.00000552,0.00008389,0.08716628,0.08113881,0.00004
 792,-0.00001351,-0.00001461,-0.00001236,-0.00000394,0.00001389,0.00000
 730,0.00000517,-0.00000395,-0.00000371,0.00000063,-0.00000318,-0.00000
 201,0.00000055,-0.00000275,-0.00001602,-0.00000538,0.00000743,0.000023
 97,0.00008136,0.00018754,-0.00015839,-0.00002451,-0.00002431,0.0001936
 0,-0.00011736,-0.00023046,-0.00001486,0.00012722,0.00014332,-0.0001574
 6,0.00016696,0.00036043,0.00031221,0.00001954,-0.00022795,0.00000343,-
 0.00000280,-0.00001079,0.00000020,-0.00000055,0.00000111,-0.00000429,0
 .00000118,-0.00000196,0.00000275,0.00000119,-0.00000147,-0.00000437,0.
 00000627,-0.00000952,-0.00002850,-0.00001894,0.00000915,-0.00042417,0.
 00204453,-0.00191349,-0.01309708,-0.00322089,0.00138055,0.00012261,-0.
 00465493,0.00446155,-0.02825764,-0.01895202,-0.04387645,0.00015826,-0.
 00046357,-0.00041628,0.00892165,0.00347207,0.00472487,0.00149058,-0.00
 375500,0.00539803,-0.00003818,0.00062861,-0.00106282,-0.00011349,-0.00
 010003,-0.00014250,0.00001588,0.00002757,0.00009497,-0.00070906,-0.000
 26250,0.00024201,-0.00002562,-0.00000284,-0.00002524,0.00012885,-0.000
 03175,-0.00037566,-0.00005603,-0.00001242,-0.00002431,0.00000212,0.,-0
 .00001075,-0.00000377,0.00000108,0.00001994,-0.00000480,-0.00000246,0.
 00000050,-0.00000613,0.00000088,0.00000025,0.00000105,0.00000106,-0.00
 000057,-0.00000074,-0.00000009,0.00000013,-0.00000057,0.00000013,0.000
 00068,0.00000301,0.00000018,-0.00000220,-0.00000059,0.,-0.00000076,-0.
 00000005,-0.00000267,0.00000086,0.00000024,0.00000013,-0.00000047,-0.0
 0000098,-0.00000022,-0.00000049,0.00000005,0.00000134,0.00000197,-0.00
 000015,-0.00000179,-0.00000094,0.00000041,-0.00000024,-0.00000051,0.00
 000038,0.00000084,0.00000064,-0.00000091,0.00000006,0.00000025,0.00000
 094,0.00000158,-0.00000082,-0.00000096,0.00000020,0.00000043,0.0000007
 2,0.00000077,0.00000115,-0.00000082,0.00000094,0.00000021,-0.00000051,
 -0.00000064,0.00000072,0.00001113,-0.00000032,-0.00000259,-0.00000126,
 0.00000010,-0.00000069,-0.00000088,0.00000010,0.00000034,-0.00026577,0
 .00195671,-0.00314144,0.00000377,-0.00004907,0.00004040,0.00000909,-0.
 00001703,-0.00001270,-0.00048007,0.00085579,0.00000155,-0.00000013,-0.
 00002106,0.00000914,0.03194119,0.02224728,0.03421416,0.00002728,0.0000
 0171,0.00000468,-0.00001527,-0.00000268,-0.00000602,-0.00000313,0.0000
 0207,-0.00000370,-0.00000007,-0.00000010,-0.00000002,-0.00000265,-0.00
 000260,0.00000424,-0.00001377,0.00000280,0.00000546,0.00001227,-0.0000
 0344,0.00001252,-0.00002695,-0.00000427,-0.00000254,0.00000629,-0.0000
 1657,-0.00001571,-0.00000741,0.00002446,-0.00000724,-0.00001345,0.0000
 3784,-0.00006610,0.00001715,0.00002948,0.00002532,0.00000375,0.0000017
 6,-0.00000445,-0.00000288,-0.00000002,0.00000303,-0.00000300,0.0000005
 1,-0.00000300,0.00000380,-0.00000198,0.00000453,-0.00000471,0.00000492
 ,0.00000467,-0.00000181,-0.00000319,-0.00000492,0.00009012,0.00002834,
 0.00000306,-0.00008861,-0.00095847,-0.00040736,0.00068539,-0.00194058,
 -0.00100261,-0.00434169,-0.00305221,-0.00134998,0.00862931,-0.00581256
 ,-0.00283277,-0.01675891,0.02029990,0.00991742,-0.21315917,0.12471444,
 0.06163852,0.00081552,0.00041426,0.00022015,-0.00005662,-0.00006033,-0
 .00004415,0.00006076,0.00003384,0.00002397,0.00041562,-0.00019235,-0.0
 0009423,-0.00002732,0.00001080,0.00000357,0.00000235,0.00005069,0.0000
 2504,-0.00000149,-0.00000935,-0.00000413,-0.00000054,0.00000763,0.0000
 0286,-0.00001285,-0.00001558,-0.00000616,-0.00000914,-0.00000373,0.000
 00131,-0.00000902,0.00000423,-0.00000125,0.00000317,0.00000138,0.00000
 046,-0.00000115,-0.00000034,-0.00000031,-0.00000115,0.00000051,0.00000
 036,0.00000294,-0.00000173,-0.00000082,-0.00000029,0.00000076,-0.00000
 040,-0.00000054,-0.00000380,-0.00000005,-0.00000054,0.00000048,-0.0000
 0025,-0.00000015,-0.00000050,-0.00000002,-0.00000024,0.00000428,0.0000
 0032,-0.00000088,-0.00000027,0.,0.00000106,-0.00000198,-0.00000003,0.0
 0000067,0.00000021,0.00000038,-0.00000160,-0.00000006,-0.00000005,0.00
 000118,0.00000145,-0.00000017,-0.00000165,0.00000012,0.00000026,0.0000
 0094,-0.00000064,0.00000003,-0.00000109,0.00000136,-0.00000013,-0.0000
 0147,-0.00000153,0.00000042,0.00001780,-0.00000013,-0.00000010,-0.0000
 0213,-0.00000012,-0.00000017,-0.00000151,0.00000005,0.00000011,0.00099
 786,-0.00022696,-0.00016381,0.00000542,0.00000466,0.00000227,0.0000005
 8,-0.00001163,-0.00000377,0.00000265,-0.00001954,0.00006983,0.00000208
 ,0.00000386,0.00000230,-0.00094249,0.00097328,0.00048902,0.22371141,-0
 .00001466,0.00000251,0.00000251,0.00000739,0.00000235,0.00000292,0.000
 00142,-0.00000170,0.00000265,-0.00000004,-0.00000008,0.00000010,0.0000
 0179,0.00000170,-0.00000206,0.00000869,-0.00000131,-0.00000468,-0.0000
 0795,-0.00000684,0.00000074,0.00000491,0.00000459,0.00000062,0.0000140
 3,0.00001511,0.00001051,0.00000370,-0.00002035,-0.00004168,-0.00001560
 ,-0.00000383,-0.00004595,0.00001330,0.00000192,0.00000488,-0.00000181,
 -0.00000105,0.00000262,0.00000125,0.,-0.00000164,0.00000186,-0.0000002
 6,0.00000174,-0.00000210,0.00000044,-0.00000194,0.00000415,-0.00000304
 ,-0.00000143,0.00000615,0.00000439,0.00000170,0.00001788,-0.00008401,0
 .00025305,-0.00080543,-0.00035406,0.00022278,-0.00273655,-0.00269283,-
 0.00470680,-0.00215805,0.00134969,-0.00247264,0.02238836,-0.01215077,-
 0.00709352,-0.00824894,0.00866168,0.00298676,0.12478372,-0.15634822,-0
 .06037472,-0.00024783,0.00016196,0.00189658,-0.00008557,-0.00054788,-0
 .00019510,0.00016708,0.00003265,0.00008420,0.00119947,0.00022634,-0.00
 014485,-0.00003660,-0.00005138,-0.00001830,0.00012862,0.00001915,-0.00
 000278,0.00001099,-0.00003097,-0.00000631,0.00000128,-0.00000905,-0.00
 000771,-0.00003356,0.00000642,0.00000135,0.00000520,0.00000217,-0.0000
 0080,0.00000517,-0.00000217,0.00000070,-0.00000175,-0.00000080,-0.0000
 0009,0.00000084,0.00000029,0.00000012,0.00000082,-0.00000027,-0.000000
 26,-0.00000165,0.00000080,0.00000057,0.00000019,-0.00000056,0.00000038
 ,0.00000029,0.00000214,-0.00000014,0.00000009,-0.00000029,0.00000021,0
 .00000011,0.00000032,0.00000004,0.00000029,-0.00000217,-0.00000032,0.0
 0000011,0.00000071,-0.00000002,-0.00000071,0.00000119,0.00000008,-0.00
 000049,-0.00000018,-0.00000035,0.00000103,0.00000009,-0.00000002,-0.00
 000068,-0.00000119,0.00000018,0.00000101,-0.00000011,-0.00000017,-0.00
 000046,0.00000008,-0.00000002,0.00000071,-0.00000093,0.00000003,0.0000
 0065,0.00000086,-0.00000026,-0.00001004,0.,0.00000032,0.00000101,0.,0.
 00000017,0.00000094,-0.00000001,-0.00000010,0.00039687,-0.00002857,0.0
 0177680,-0.00000466,-0.00003363,-0.00001639,0.00001653,-0.00004814,-0.
 00004907,-0.00001701,0.00001025,0.00001460,-0.00000694,-0.00000261,0.0
 0001030,-0.00044592,0.00029933,0.00008652,-0.13431288,0.16162015,-0.00
 000828,-0.00000308,-0.00000131,0.00000543,0.00000072,0.00000416,0.0000
 0157,-0.00000087,0.00000120,0.00000006,0.00000007,-0.00000022,0.000001
 04,0.00000161,-0.00000194,0.00000428,-0.00000088,-0.00000086,0.0000100
 5,0.00000610,0.00000247,-0.00000240,0.00001136,0.00001674,0.00001674,-
 0.00002563,-0.00001537,-0.00004267,0.00006125,0.00004041,0.00006372,-0
 .00000456,0.00004280,-0.00000148,-0.00000148,-0.00001403,-0.00000118,-
 0.00000089,0.00000015,0.00000142,-0.00000008,-0.00000119,0.00000043,-0
 .00000011,0.00000093,-0.00000084,0.00000018,-0.00000173,0.00000110,0.0
 0000002,-0.00000358,0.00000020,-0.00000194,0.00000371,-0.00003717,0.00
 030501,-0.00041564,-0.00037787,0.00013289,-0.00066600,-0.00145345,-0.0
 0464369,0.00416104,-0.00095183,-0.00246903,0.00531624,0.01099492,-0.00
 720372,-0.00112143,-0.00374546,0.00296005,0.00401666,0.06152847,-0.060
 32953,-0.06382043,-0.00006254,0.00189216,-0.00267837,-0.00008499,-0.00
 018500,-0.00029787,0.00005741,0.00013206,-0.00008218,0.00059643,-0.000
 20508,0.00054416,-0.00003465,-0.00001999,-0.00002805,0.00005736,-0.000
 00686,-0.00000163,0.00000026,-0.00000843,-0.00002208,0.00000032,-0.000
 00771,0.00000076,-0.00001879,-0.00000314,0.00000919,0.00000330,0.00000
 103,-0.00000045,0.00000283,-0.00000192,0.00000065,-0.00000132,-0.00000
 032,-0.00000046,0.00000037,0.00000011,0.00000024,0.00000041,-0.0000001
 9,0.,-0.00000051,0.00000088,-0.00000018,-0.00000006,-0.00000049,-0.000
 00010,0.00000027,0.00000107,0.00000031,0.00000040,-0.00000021,-0.00000
 010,-0.00000026,0.00000015,-0.00000022,0.00000006,-0.00000181,0.000000
 31,0.00000045,-0.00000037,-0.00000033,-0.00000043,0.00000097,-0.000000
 22,-0.00000021,0.00000021,0.00000009,0.00000053,0.00000006,0.00000017,
 -0.00000032,-0.00000020,-0.00000025,0.00000055,0.,0.00000007,-0.000000
 28,0.00000061,0.00000036,0.00000027,-0.00000037,0.00000020,0.00000061,
 0.00000061,0.00000008,-0.00000599,0.00000010,-0.00000051,0.00000072,0.
 00000008,-0.00000022,0.00000050,0.00000001,0.00000012,0.00013776,0.001
 74217,-0.00288515,-0.00000227,-0.00001639,-0.00000766,0.00001612,-0.00
 004224,0.00004040,0.00000553,-0.00001418,-0.00001497,-0.00000479,-0.00
 000196,0.00000762,-0.00023217,0.00012736,0.00022448,-0.06643970,0.0678
 2341,0.05764900\\-0.00000040,0.,0.,0.00000026,0.00000009,-0.00000025,-
 0.00000012,0.00000005,-0.00000006,0.00000017,0.,0.,-0.00000012,-0.0000
 0005,0.00000007,0.00000026,-0.00000009,0.00000025,0.00000249,0.,0.,-0.
 00000112,-0.00000036,-0.00000131,0.00000314,0.00000133,-0.00000420,-0.
 00000265,0.,0.,0.00000314,-0.00000133,0.00000420,-0.00000112,0.0000003
 6,0.00000132,0.,0.00000006,0.00000003,0.,0.00000015,-0.00000002,0.,-0.
 00000015,0.00000002,0.,-0.00000006,-0.00000003,0.00000002,0.00000012,-
 0.00000015,0.00000002,-0.00000012,0.00000015,0.00000300,0.,0.,-0.00000
 143,0.00000409,-0.00000307,-0.00000012,0.00000059,-0.00000028,-0.00000
 111,0.00000202,0.00000064,-0.00000085,-0.00000004,0.00000111,-0.000000
 71,0.00000063,0.00000094,0.00000060,-0.00000099,-0.00000045,0.,0.00000
 015,0.00000014,-0.00000143,-0.00000409,0.00000307,-0.00000111,-0.00000
 203,-0.00000064,-0.00000013,-0.00000059,0.00000028,-0.00000071,-0.0000
 0063,-0.00000094,-0.00000085,0.00000004,-0.00000110,0.00000060,0.00000
 099,0.00000045,-0.00000008,0.00000013,-0.00000043,0.,-0.00000015,-0.00
 000014,0.00000015,-0.00000009,-0.00000009,0.00000015,0.00000009,0.0000
 0009,0.00000008,-0.00000020,-0.00000023,-0.00000006,-0.00000002,-0.000
 00005,-0.00000006,0.00000002,0.00000005,0.00000008,0.00000020,0.000000
 23,0.00000009,-0.00000006,-0.00000032,-0.00000007,0.00000006,-0.000000
 14,-0.00000002,-0.00000011,-0.00000015,-0.00000002,0.00000011,0.000000
 15,-0.00000007,-0.00000006,0.00000014,0.00000009,0.00000006,0.00000032
 ,-0.00000011,-0.00000002,-0.00000029,0.00000002,-0.00000001,-0.0000003
 1,0.00000002,-0.00000003,-0.00000018,-0.00000011,0.00000002,0.00000029
 ,0.00000002,0.00000003,0.00000018,0.00000002,0.00000001,0.00000031,-0.
 00000001,-0.00000003,-0.00000032,-0.00000001,0.00000003,0.00000032,-0.
 00000027,0.,0.,0.00000002,0.,0.,0.00000002,0.,0.,-0.00000008,-0.000000
 14,0.00000043,-0.00000125,-0.00000084,-0.00000071,-0.00000122,-0.00000
 110,0.,0.00000272,-0.00000195,-0.00000012,0.00000272,0.00000195,0.0000
 0012,-0.00000122,0.00000110,0.,-0.00000125,0.00000084,0.00000071\\\@
 The archive entry for this job was punched.


 THE PROGRESS OF RIVERS TO THE SEA IS NOT AS RAPID
 AS THAT OF MAN TO ERROR.
                                              -- VOLTAIRE
 Job cpu time:       0 days 19 hours 46 minutes 29.9 seconds.
 Elapsed time:       0 days  0 hours 49 minutes 29.5 seconds.
 File lengths (MBytes):  RWF=   6163 Int=      0 D2E=      0 Chk=     60 Scr=      2
 Normal termination of Gaussian 16 at Wed Aug 20 12:54:14 2025.
